# vtk DataFile Version 2.0 
Grid
ASCII
DATASET STRUCTURED_GRID
DIMENSIONS 201 201 1
POINTS 40401 float
0.000000 0.000000 0.000000
0.005000 0.000000 0.000000
0.010000 0.000000 0.000000
0.015000 0.000000 0.000000
0.020000 0.000000 0.000000
0.025000 0.000000 0.000000
0.030000 0.000000 0.000000
0.035000 0.000000 0.000000
0.040000 0.000000 0.000000
0.045000 0.000000 0.000000
0.050000 0.000000 0.000000
0.055000 0.000000 0.000000
0.060000 0.000000 0.000000
0.065000 0.000000 0.000000
0.070000 0.000000 0.000000
0.075000 0.000000 0.000000
0.080000 0.000000 0.000000
0.085000 0.000000 0.000000
0.090000 0.000000 0.000000
0.095000 0.000000 0.000000
0.100000 0.000000 0.000000
0.105000 0.000000 0.000000
0.110000 0.000000 0.000000
0.115000 0.000000 0.000000
0.120000 0.000000 0.000000
0.125000 0.000000 0.000000
0.130000 0.000000 0.000000
0.135000 0.000000 0.000000
0.140000 0.000000 0.000000
0.145000 0.000000 0.000000
0.150000 0.000000 0.000000
0.155000 0.000000 0.000000
0.160000 0.000000 0.000000
0.165000 0.000000 0.000000
0.170000 0.000000 0.000000
0.175000 0.000000 0.000000
0.180000 0.000000 0.000000
0.185000 0.000000 0.000000
0.190000 0.000000 0.000000
0.195000 0.000000 0.000000
0.200000 0.000000 0.000000
0.205000 0.000000 0.000000
0.210000 0.000000 0.000000
0.215000 0.000000 0.000000
0.220000 0.000000 0.000000
0.225000 0.000000 0.000000
0.230000 0.000000 0.000000
0.235000 0.000000 0.000000
0.240000 0.000000 0.000000
0.245000 0.000000 0.000000
0.250000 0.000000 0.000000
0.255000 0.000000 0.000000
0.260000 0.000000 0.000000
0.265000 0.000000 0.000000
0.270000 0.000000 0.000000
0.275000 0.000000 0.000000
0.280000 0.000000 0.000000
0.285000 0.000000 0.000000
0.290000 0.000000 0.000000
0.295000 0.000000 0.000000
0.300000 0.000000 0.000000
0.305000 0.000000 0.000000
0.310000 0.000000 0.000000
0.315000 0.000000 0.000000
0.320000 0.000000 0.000000
0.325000 0.000000 0.000000
0.330000 0.000000 0.000000
0.335000 0.000000 0.000000
0.340000 0.000000 0.000000
0.345000 0.000000 0.000000
0.350000 0.000000 0.000000
0.355000 0.000000 0.000000
0.360000 0.000000 0.000000
0.365000 0.000000 0.000000
0.370000 0.000000 0.000000
0.375000 0.000000 0.000000
0.380000 0.000000 0.000000
0.385000 0.000000 0.000000
0.390000 0.000000 0.000000
0.395000 0.000000 0.000000
0.400000 0.000000 0.000000
0.405000 0.000000 0.000000
0.410000 0.000000 0.000000
0.415000 0.000000 0.000000
0.420000 0.000000 0.000000
0.425000 0.000000 0.000000
0.430000 0.000000 0.000000
0.435000 0.000000 0.000000
0.440000 0.000000 0.000000
0.445000 0.000000 0.000000
0.450000 0.000000 0.000000
0.455000 0.000000 0.000000
0.460000 0.000000 0.000000
0.465000 0.000000 0.000000
0.470000 0.000000 0.000000
0.475000 0.000000 0.000000
0.480000 0.000000 0.000000
0.485000 0.000000 0.000000
0.490000 0.000000 0.000000
0.495000 0.000000 0.000000
0.500000 0.000000 0.000000
0.505000 0.000000 0.000000
0.510000 0.000000 0.000000
0.515000 0.000000 0.000000
0.520000 0.000000 0.000000
0.525000 0.000000 0.000000
0.530000 0.000000 0.000000
0.535000 0.000000 0.000000
0.540000 0.000000 0.000000
0.545000 0.000000 0.000000
0.550000 0.000000 0.000000
0.555000 0.000000 0.000000
0.560000 0.000000 0.000000
0.565000 0.000000 0.000000
0.570000 0.000000 0.000000
0.575000 0.000000 0.000000
0.580000 0.000000 0.000000
0.585000 0.000000 0.000000
0.590000 0.000000 0.000000
0.595000 0.000000 0.000000
0.600000 0.000000 0.000000
0.605000 0.000000 0.000000
0.610000 0.000000 0.000000
0.615000 0.000000 0.000000
0.620000 0.000000 0.000000
0.625000 0.000000 0.000000
0.630000 0.000000 0.000000
0.635000 0.000000 0.000000
0.640000 0.000000 0.000000
0.645000 0.000000 0.000000
0.650000 0.000000 0.000000
0.655000 0.000000 0.000000
0.660000 0.000000 0.000000
0.665000 0.000000 0.000000
0.670000 0.000000 0.000000
0.675000 0.000000 0.000000
0.680000 0.000000 0.000000
0.685000 0.000000 0.000000
0.690000 0.000000 0.000000
0.695000 0.000000 0.000000
0.700000 0.000000 0.000000
0.705000 0.000000 0.000000
0.710000 0.000000 0.000000
0.715000 0.000000 0.000000
0.720000 0.000000 0.000000
0.725000 0.000000 0.000000
0.730000 0.000000 0.000000
0.735000 0.000000 0.000000
0.740000 0.000000 0.000000
0.745000 0.000000 0.000000
0.750000 0.000000 0.000000
0.755000 0.000000 0.000000
0.760000 0.000000 0.000000
0.765000 0.000000 0.000000
0.770000 0.000000 0.000000
0.775000 0.000000 0.000000
0.780000 0.000000 0.000000
0.785000 0.000000 0.000000
0.790000 0.000000 0.000000
0.795000 0.000000 0.000000
0.800000 0.000000 0.000000
0.805000 0.000000 0.000000
0.810000 0.000000 0.000000
0.815000 0.000000 0.000000
0.820000 0.000000 0.000000
0.825000 0.000000 0.000000
0.830000 0.000000 0.000000
0.835000 0.000000 0.000000
0.840000 0.000000 0.000000
0.845000 0.000000 0.000000
0.850000 0.000000 0.000000
0.855000 0.000000 0.000000
0.860000 0.000000 0.000000
0.865000 0.000000 0.000000
0.870000 0.000000 0.000000
0.875000 0.000000 0.000000
0.880000 0.000000 0.000000
0.885000 0.000000 0.000000
0.890000 0.000000 0.000000
0.895000 0.000000 0.000000
0.900000 0.000000 0.000000
0.905000 0.000000 0.000000
0.910000 0.000000 0.000000
0.915000 0.000000 0.000000
0.920000 0.000000 0.000000
0.925000 0.000000 0.000000
0.930000 0.000000 0.000000
0.935000 0.000000 0.000000
0.940000 0.000000 0.000000
0.945000 0.000000 0.000000
0.950000 0.000000 0.000000
0.955000 0.000000 0.000000
0.960000 0.000000 0.000000
0.965000 0.000000 0.000000
0.970000 0.000000 0.000000
0.975000 0.000000 0.000000
0.980000 0.000000 0.000000
0.985000 0.000000 0.000000
0.990000 0.000000 0.000000
0.995000 0.000000 0.000000
1.000000 0.000000 0.000000
0.000000 0.005000 0.000000
0.005000 0.005000 0.000000
0.010000 0.005000 0.000000
0.015000 0.005000 0.000000
0.020000 0.005000 0.000000
0.025000 0.005000 0.000000
0.030000 0.005000 0.000000
0.035000 0.005000 0.000000
0.040000 0.005000 0.000000
0.045000 0.005000 0.000000
0.050000 0.005000 0.000000
0.055000 0.005000 0.000000
0.060000 0.005000 0.000000
0.065000 0.005000 0.000000
0.070000 0.005000 0.000000
0.075000 0.005000 0.000000
0.080000 0.005000 0.000000
0.085000 0.005000 0.000000
0.090000 0.005000 0.000000
0.095000 0.005000 0.000000
0.100000 0.005000 0.000000
0.105000 0.005000 0.000000
0.110000 0.005000 0.000000
0.115000 0.005000 0.000000
0.120000 0.005000 0.000000
0.125000 0.005000 0.000000
0.130000 0.005000 0.000000
0.135000 0.005000 0.000000
0.140000 0.005000 0.000000
0.145000 0.005000 0.000000
0.150000 0.005000 0.000000
0.155000 0.005000 0.000000
0.160000 0.005000 0.000000
0.165000 0.005000 0.000000
0.170000 0.005000 0.000000
0.175000 0.005000 0.000000
0.180000 0.005000 0.000000
0.185000 0.005000 0.000000
0.190000 0.005000 0.000000
0.195000 0.005000 0.000000
0.200000 0.005000 0.000000
0.205000 0.005000 0.000000
0.210000 0.005000 0.000000
0.215000 0.005000 0.000000
0.220000 0.005000 0.000000
0.225000 0.005000 0.000000
0.230000 0.005000 0.000000
0.235000 0.005000 0.000000
0.240000 0.005000 0.000000
0.245000 0.005000 0.000000
0.250000 0.005000 0.000000
0.255000 0.005000 0.000000
0.260000 0.005000 0.000000
0.265000 0.005000 0.000000
0.270000 0.005000 0.000000
0.275000 0.005000 0.000000
0.280000 0.005000 0.000000
0.285000 0.005000 0.000000
0.290000 0.005000 0.000000
0.295000 0.005000 0.000000
0.300000 0.005000 0.000000
0.305000 0.005000 0.000000
0.310000 0.005000 0.000000
0.315000 0.005000 0.000000
0.320000 0.005000 0.000000
0.325000 0.005000 0.000000
0.330000 0.005000 0.000000
0.335000 0.005000 0.000000
0.340000 0.005000 0.000000
0.345000 0.005000 0.000000
0.350000 0.005000 0.000000
0.355000 0.005000 0.000000
0.360000 0.005000 0.000000
0.365000 0.005000 0.000000
0.370000 0.005000 0.000000
0.375000 0.005000 0.000000
0.380000 0.005000 0.000000
0.385000 0.005000 0.000000
0.390000 0.005000 0.000000
0.395000 0.005000 0.000000
0.400000 0.005000 0.000000
0.405000 0.005000 0.000000
0.410000 0.005000 0.000000
0.415000 0.005000 0.000000
0.420000 0.005000 0.000000
0.425000 0.005000 0.000000
0.430000 0.005000 0.000000
0.435000 0.005000 0.000000
0.440000 0.005000 0.000000
0.445000 0.005000 0.000000
0.450000 0.005000 0.000000
0.455000 0.005000 0.000000
0.460000 0.005000 0.000000
0.465000 0.005000 0.000000
0.470000 0.005000 0.000000
0.475000 0.005000 0.000000
0.480000 0.005000 0.000000
0.485000 0.005000 0.000000
0.490000 0.005000 0.000000
0.495000 0.005000 0.000000
0.500000 0.005000 0.000000
0.505000 0.005000 0.000000
0.510000 0.005000 0.000000
0.515000 0.005000 0.000000
0.520000 0.005000 0.000000
0.525000 0.005000 0.000000
0.530000 0.005000 0.000000
0.535000 0.005000 0.000000
0.540000 0.005000 0.000000
0.545000 0.005000 0.000000
0.550000 0.005000 0.000000
0.555000 0.005000 0.000000
0.560000 0.005000 0.000000
0.565000 0.005000 0.000000
0.570000 0.005000 0.000000
0.575000 0.005000 0.000000
0.580000 0.005000 0.000000
0.585000 0.005000 0.000000
0.590000 0.005000 0.000000
0.595000 0.005000 0.000000
0.600000 0.005000 0.000000
0.605000 0.005000 0.000000
0.610000 0.005000 0.000000
0.615000 0.005000 0.000000
0.620000 0.005000 0.000000
0.625000 0.005000 0.000000
0.630000 0.005000 0.000000
0.635000 0.005000 0.000000
0.640000 0.005000 0.000000
0.645000 0.005000 0.000000
0.650000 0.005000 0.000000
0.655000 0.005000 0.000000
0.660000 0.005000 0.000000
0.665000 0.005000 0.000000
0.670000 0.005000 0.000000
0.675000 0.005000 0.000000
0.680000 0.005000 0.000000
0.685000 0.005000 0.000000
0.690000 0.005000 0.000000
0.695000 0.005000 0.000000
0.700000 0.005000 0.000000
0.705000 0.005000 0.000000
0.710000 0.005000 0.000000
0.715000 0.005000 0.000000
0.720000 0.005000 0.000000
0.725000 0.005000 0.000000
0.730000 0.005000 0.000000
0.735000 0.005000 0.000000
0.740000 0.005000 0.000000
0.745000 0.005000 0.000000
0.750000 0.005000 0.000000
0.755000 0.005000 0.000000
0.760000 0.005000 0.000000
0.765000 0.005000 0.000000
0.770000 0.005000 0.000000
0.775000 0.005000 0.000000
0.780000 0.005000 0.000000
0.785000 0.005000 0.000000
0.790000 0.005000 0.000000
0.795000 0.005000 0.000000
0.800000 0.005000 0.000000
0.805000 0.005000 0.000000
0.810000 0.005000 0.000000
0.815000 0.005000 0.000000
0.820000 0.005000 0.000000
[...]
POINT_DATA 40401
SCALARS P float 1
LOOKUP_TABLE default
 0.000000
 0.000000
 0.000000
 0.000000
 0.000000
 0.000000
 0.000000
 0.000000
 0.000000
 0.000000
 0.000000
 0.000000
 0.000000
 0.000000
 0.000000
 0.000000
 0.000000
 0.000000
 0.000000
 0.000000
 0.000000
 0.000000
 0.000000
 0.000000
 0.000000
 0.000000
 0.000000
 0.000000
 0.000000
 0.000000
 0.000000
 0.000000
 0.000000
 0.000000
 0.000000
 0.000000
 0.000000
 0.000000
 0.000000
 0.000000
 0.000000
 0.000000
 0.000000
 0.000000
 0.000000
 0.000000
 0.000000
 0.000000
 0.000000
 0.000000
 0.000000
 0.000000
 0.000000
 0.000000
 0.000000
 0.000000
 0.000000
 0.000000
 0.000000
 0.000000
 0.000000
 0.000000
 0.000000
 0.000000
 0.000000
 0.000000
 0.000000
 0.000000
 0.000000
 0.000000
 0.000000
 0.000000
 0.000000
 0.000000
 0.000000
 0.000000
 0.000000
 0.000000
 0.000000
 0.000000
 0.000000
 0.000000
 0.000000
 0.000000
 0.000000
 0.000000
 0.000000
 0.000000
 0.000000
 0.000000
 0.000000
 0.000000
 0.000000
 0.000000
 0.000000
 0.000000
 0.000000
 0.000000
 0.000000
 0.000000
 0.000000
 0.000000
 0.000000
 0.000000
 0.000000
 0.000000
 0.000000
 0.000000
 0.000000
 0.000000
 0.000000
 0.000000
 0.000000
 0.000000
 0.000000
 0.000000
 0.000000
 0.000000
 0.000000
 0.000000
 0.000000
 0.000000
 0.000000
 0.000000
 0.000000
 0.000000
 0.000000
 0.000000
 0.000000
 0.000000
 0.000000
 0.000000
 0.000000
 0.000000
 0.000000
 0.000000
 0.000000
 0.000000
 0.000000
 0.000000
 0.000000
 0.000000
 0.000000
 0.000000
 0.000000
 0.000000
 0.000000
 0.000000
 0.000000
 0.000000
 0.000000
 0.000000
 0.000000
 0.000000
 0.000000
 0.000000
 0.000000
 0.000000
 0.000000
 0.000000
 0.000000
 0.000000
 0.000000
 0.000000
 0.000000
 0.000000
 0.000000
 0.000000
 0.000000
 0.000000
 0.000000
 0.000000
 0.000000
 0.000000
 0.000000
 0.000000
 0.000000
 0.000000
 0.000000
 0.000000
 0.000000
 0.000000
 0.000000
 0.000000
 0.000000
 0.000000
 0.000000
 0.000000
 0.000000
 0.000000
 0.000000
 0.000000
 0.000000
 0.000000
 0.000000
 0.000000
 0.000000
 0.000000
 0.000000
 0.000000
 0.000000
 0.000000
 0.000016
 0.000029
 0.000041
 0.000052
 0.000062
 0.000072
 0.000081
 0.000089
 0.000097
 0.000105
 0.000112
 0.000120
 0.000126
 0.000133
 0.000139
 0.000146
 0.000152
 0.000157
 0.000163
 0.000168
 0.000174
 0.000179
 0.000184
 0.000189
 0.000193
 0.000198
 0.000202
 0.000207
 0.000211
 0.000215
 0.000219
 0.000223
 0.000227
 0.000231
 0.000234
 0.000238
 0.000241
 0.000245
 0.000248
 0.000251
 0.000254
 0.000257
 0.000260
 0.000263
 0.000266
 0.000269
 0.000271
 0.000274
 0.000276
 0.000279
 0.000281
 0.000284
 0.000286
 0.000288
 0.000290
 0.000292
 0.000294
 0.000296
 0.000298
 0.000300
 0.000302
 0.000304
 0.000305
 0.000307
 0.000309
 0.000310
 0.000312
 0.000313
 0.000315
 0.000316
 0.000317
 0.000318
 0.000320
 0.000321
 0.000322
 0.000323
 0.000324
 0.000325
 0.000326
 0.000327
 0.000328
 0.000328
 0.000329
 0.000330
 0.000330
 0.000331
 0.000332
 0.000332
 0.000333
 0.000333
 0.000333
 0.000334
 0.000334
 0.000334
 0.000335
 0.000335
 0.000335
 0.000335
 0.000335
 0.000335
 0.000335
 0.000335
 0.000335
 0.000335
 0.000335
 0.000334
 0.000334
 0.000334
 0.000333
 0.000333
 0.000333
 0.000332
 0.000332
 0.000331
 0.000330
 0.000330
 0.000329
 0.000328
 0.000328
 0.000327
 0.000326
 0.000325
 0.000324
 0.000323
 0.000322
 0.000321
 0.000320
 0.000318
 0.000317
 0.000316
 0.000315
 0.000313
 0.000312
 0.000310
 0.000309
 0.000307
 0.000305
 0.000304
 0.000302
 0.000300
 0.000298
 0.000296
 0.000294
 0.000292
 0.000290
 0.000288
 0.000286
 0.000284
 0.000281
 0.000279
 0.000276
 0.000274
 0.000271
 0.000269
 0.000266
 0.000263
 0.000260
 0.000257
 0.000254
 0.000251
 0.000248
 0.000245
 0.000241
 0.000238
 0.000234
 0.000231
 0.000227
 0.000223
 0.000219
 0.000215
 0.000211
 0.000207
 0.000202
 0.000198
 0.000193
 0.000189
 0.000184
 0.000179
 0.000174
 0.000168
 0.000163
 0.000157
 0.000152
 0.000146
 0.000139
 0.000133
 0.000126
 0.000120
 0.000112
 0.000105
 0.000097
 0.000089
 0.000081
 0.000072
 0.000062
 0.000052
 0.000041
 0.000029
 0.000016
 0.000000
 0.000000
 0.000029
 0.000055
 0.000079
 0.000100
 0.000120
 0.000139
 0.000157
 0.000174
 0.000190
 0.000205
 0.000220
 0.000234
 0.000248
 0.000261
 0.000274
 0.000286
 0.000298
 0.000310
 0.000321
 0.000332
 0.000343
 0.000353
 0.000363
 0.000373
 0.000382
 0.000391
 0.000400
 0.000409
 0.000417
 0.000425
 0.000434
 0.000441
 0.000449
 0.000456
 0.000464
 0.000471
 0.000478
 0.000484
 0.000491
 0.000497
 0.000503
 0.000510
 0.000515
 0.000521
 0.000527
 0.000532
 0.000538
 0.000543
 0.000548
 0.000553
 0.000558
 0.000562
 0.000567
 0.000571
 0.000576
 0.000580
 0.000584
 0.000588
 0.000592
 0.000595
 0.000599
 0.000602
 0.000606
 0.000609
 0.000612
 0.000615
 0.000618
 0.000621
 0.000624
 0.000627
 0.000629
 0.000632
 0.000634
 0.000637
 0.000639
 0.000641
 0.000643
 0.000645
 0.000647
 0.000648
 0.000650
 0.000652
 0.000653
 0.000655
 0.000656
 0.000657
 0.000658
 0.000659
 0.000660
 0.000661
 0.000662
 0.000663
 0.000663
 0.000664
 0.000664
 0.000665
 0.000665
 0.000665
 0.000665
 0.000665
 0.000665
 0.000665
 0.000665
 0.000665
 0.000664
 0.000664
 0.000663
 0.000663
 0.000662
 0.000661
 0.000660
 0.000659
 0.000658
 0.000657
 0.000656
 0.000655
 0.000653
 0.000652
 0.000650
 0.000648
 0.000647
 0.000645
 0.000643
 0.000641
 0.000639
 0.000637
 0.000634
 0.000632
 0.000629
 0.000627
 0.000624
 0.000621
 0.000618
 0.000615
 0.000612
 0.000609
 0.000606
 0.000602
 0.000599
 0.000595
 0.000592
 0.000588
 0.000584
 0.000580
 0.000576
 0.000571
 0.000567
 0.000562
 0.000558
 0.000553
 0.000548
 0.000543
 0.000538
 0.000532
 0.000527
 0.000521
 0.000515
 0.000510
 0.000503
 0.000497
 0.000491
 0.000484
 0.000478
 0.000471
 0.000464
 0.000456
 0.000449
 0.000441
 0.000434
 0.000425
 0.000417
 0.000409
 0.000400
 0.000391
 0.000382
 0.000373
 0.000363
 0.000353
 0.000343
 0.000332
 0.000321
 0.000310
 0.000298
 0.000286
 0.000274
 0.000261
 0.000248
 0.000234
 0.000220
 0.000205
 0.000190
 0.000174
 0.000157
 0.000139
 0.000120
 0.000100
 0.000079
 0.000055
 0.000029
 0.000000
 0.000000
 0.000041
 0.000079
 0.000113
 0.000145
 0.000175
 0.000203
 0.000229
 0.000254
 0.000278
 0.000301
 0.000324
 0.000345
 0.000365
 0.000385
 0.000404
 0.000423
 0.000441
 0.000458
 0.000475
 0.000491
 0.000507
 0.000522
 0.000537
 0.000552
 0.000566
 0.000580
 0.000593
 0.000606
 0.000619
 0.000631
 0.000643
 0.000655
 0.000666
 0.000677
 0.000688
 0.000699
 0.000709
 0.000719
 0.000729
 0.000739
 0.000748
 0.000757
 0.000766
 0.000775
 0.000783
 0.000791
 0.000799
 0.000807
 0.000815
 0.000822
 0.000829
 0.000836
 0.000843
 0.000850
 0.000856
 0.000862
 0.000868
 0.000874
 0.000880
 0.000886
 0.000891
 0.000896
 0.000901
 0.000906
 0.000911
 0.000916
 0.000920
 0.000925
 0.000929
 0.000933
 0.000937
 0.000940
 0.000944
 0.000948
 0.000951
 0.000954
 0.000957
 0.000960
 0.000963
 0.000965
 0.000968
 0.000970
 0.000972
 0.000975
 0.000976
 0.000978
 0.000980
 0.000982
 0.000983
 0.000984
 0.000986
 0.000987
 0.000988
 0.000988
 0.000989
 0.000990
 0.000990
 0.000990
 0.000991
 0.000991
 0.000991
 0.000990
 0.000990
 0.000990
 0.000989
 0.000988
 0.000988
 0.000987
 0.000986
 0.000984
 0.000983
 0.000982
 0.000980
 0.000978
 0.000976
 0.000975
 0.000972
 0.000970
 0.000968
 0.000965
 0.000963
 0.000960
 0.000957
 0.000954
 0.000951
 0.000948
 0.000944
 0.000940
 0.000937
 0.000933
 0.000929
 0.000925
 0.000920
 0.000916
 0.000911
 0.000906
 0.000901
 0.000896
 0.000891
 0.000886
 0.000880
 0.000874
 0.000868
 0.000862
 0.000856
 0.000850
 0.000843
 0.000836
 0.000829
 0.000822
 0.000815
 0.000807
 0.000799
 0.000791
 0.000783
 0.000775
 0.000766
 0.000757
 0.000748
 0.000739
 0.000729
 0.000719
 0.000709
 0.000699
 0.000688
 0.000677
 0.000666
 0.000655
 0.000643
 0.000631
 0.000619
 0.000606
 0.000593
 0.000580
 0.000566
 0.000552
 0.000537
 0.000522
 0.000507
 0.000491
 0.000475
 0.000458
 0.000441
 0.000423
 0.000404
 0.000385
 0.000365
 0.000345
 0.000324
 0.000301
 0.000278
 0.000254
 0.000229
 0.000203
 0.000175
 0.000145
 0.000113
 0.000079
 0.000041
 0.000000
 0.000000
 0.000052
 0.000100
 0.000145
 0.000186
 0.000225
 0.000262
 0.000297
 0.000331
 0.000363
 0.000393
 0.000423
 0.000451
 0.000478
 0.000505
 0.000530
 0.000555
 0.000578
 0.000601
 0.000624
 0.000645
 0.000666
 0.000687
 0.000707
 0.000726
 0.000745
 0.000763
 0.000781
 0.000798
 0.000815
 0.000832
 0.000848
 0.000864
 0.000879
 0.000894
 0.000908
 0.000922
 0.000936
 0.000949
 0.000962
 0.000975
 0.000988
 0.001000
 0.001012
 0.001023
 0.001034
 0.001045
 0.001056
 0.001066
 0.001076
 0.001086
 0.001096
 0.001105
 0.001114
 0.001123
 0.001132
 0.001140
 0.001148
 0.001156
 0.001164
 0.001171
 0.001178
 0.001185
 0.001192
 0.001199
 0.001205
 0.001211
 0.001217
 0.001223
 0.001229
 0.001234
 0.001239
 0.001244
 0.001249
 0.001254
 0.001258
 0.001262
 0.001266
 0.001270
 0.001274
 0.001277
 0.001281
 0.001284
 0.001287
 0.001290
 0.001292
 0.001295
 0.001297
 0.001299
 0.001301
 0.001303
 0.001304
 0.001306
 0.001307
 0.001308
 0.001309
 0.001310
 0.001310
 0.001311
 0.001311
 0.001311
 0.001311
 0.001311
 0.001310
 0.001310
 0.001309
 0.001308
 0.001307
 0.001306
 0.001304
 0.001303
 0.001301
 0.001299
 0.001297
 0.001295
 0.001292
 0.001290
 0.001287
 0.001284
 0.001281
 0.001277
 0.001274
 0.001270
 0.001266
 0.001262
 0.001258
 0.001254
 0.001249
 0.001244
 0.001239
 0.001234
 0.001229
 0.001223
 0.001217
 0.001211
 0.001205
 0.001199
 0.001192
 0.001185
 0.001178
 0.001171
 0.001164
 0.001156
 0.001148
 0.001140
 0.001132
 0.001123
 0.001114
 0.001105
 0.001096
 0.001086
 0.001076
 0.001066
 0.001056
 0.001045
 0.001034
 0.001023
 0.001012
 0.001000
 0.000988
 0.000975
 0.000962
 0.000949
 0.000936
 0.000922
 0.000908
 0.000894
 0.000879
 0.000864
 0.000848
 0.000832
 0.000815
 0.000798
 0.000781
 0.000763
 0.000745
 0.000726
 0.000707
 0.000687
 0.000666
 0.000645
 0.000624
 0.000601
 0.000578
 0.000555
 0.000530
 0.000505
 0.000478
 0.000451
 0.000423
 0.000393
 0.000363
 0.000331
 0.000297
 0.000262
 0.000225
 0.000186
 0.000145
 0.000100
 0.000052
 0.000000
 0.000000
 0.000062
 0.000120
 0.000175
 0.000225
 0.000274
 0.000319
 0.000363
 0.000404
 0.000444
 0.000482
 0.000518
 0.000553
 0.000587
 0.000620
 0.000652
 0.000682
 0.000712
 0.000741
 0.000768
 0.000795
 0.000822
 0.000847
 0.000872
 0.000896
 0.000920
 0.000943
 0.000965
 0.000986
 0.001008
 0.001028
 0.001048
 0.001068
 0.001087
 0.001105
 0.001123
 0.001141
 0.001158
 0.001175
 0.001191
 0.001207
 0.001223
 0.001238
 0.001252
 0.001267
 0.001281
 0.001295
 0.001308
 0.001321
 0.001333
 0.001346
 0.001358
 0.001369
 0.001381
 0.001392
 0.001403
 0.001413
 0.001423
 0.001433
 0.001443
 0.001452
 0.001461
 0.001470
 0.001478
 0.001486
 0.001494
 0.001502
 0.001510
 0.001517
 0.001524
 0.001530
 0.001537
 0.001543
 0.001549
 0.001555
 0.001560
 0.001566
 0.001571
 0.001575
 0.001580
 0.001584
 0.001589
 0.001593
 0.001596
 0.001600
 0.001603
 0.001606
 0.001609
 0.001612
 0.001614
 0.001616
 0.001618
 0.001620
 0.001622
 0.001623
 0.001624
 0.001625
 0.001626
 0.001626
 0.001627
 0.001627
 0.001627
 0.001626
 0.001626
 0.001625
 0.001624
 0.001623
 0.001622
 0.001620
 0.001618
 0.001616
 0.001614
 0.001612
 0.001609
 0.001606
 0.001603
 0.001600
 0.001596
 0.001593
 0.001589
 0.001584
 0.001580
 0.001575
 0.001571
 0.001566
 0.001560
 0.001555
 0.001549
 0.001543
 0.001537
 0.001530
 0.001524
 0.001517
 0.001510
 0.001502
 0.001494
 0.001486
 0.001478
 0.001470
 0.001461
 0.001452
 0.001443
 0.001433
 0.001423
 0.001413
 0.001403
 0.001392
 0.001381
 0.001369
 0.001358
 0.001346
 0.001333
 0.001321
 0.001308
 0.001295
 0.001281
 0.001267
 0.001252
 0.001238
 0.001223
 0.001207
 0.001191
 0.001175
 0.001158
 0.001141
 0.001123
 0.001105
 0.001087
 0.001068
 0.001048
 0.001028
 0.001008
 0.000986
 0.000965
 0.000943
 0.000920
 0.000896
 0.000872
 0.000847
 0.000822
 0.000795
 0.000768
 0.000741
 0.000712
 0.000682
 0.000652
 0.000620
 0.000587
 0.000553
 0.000518
 0.000482
 0.000444
 0.000404
 0.000363
 0.000319
 0.000274
 0.000225
 0.000175
 0.000120
 0.000062
 0.000000
 0.000000
 0.000072
 0.000139
 0.000203
 0.000262
 0.000319
 0.000373
 0.000425
 0.000474
 0.000521
 0.000566
 0.000610
 0.000652
 0.000692
 0.000731
 0.000769
 0.000806
 0.000841
 0.000876
 0.000909
 0.000941
 0.000973
 0.001003
 0.001033
 0.001062
 0.001090
 0.001117
 0.001144
 0.001170
 0.001195
 0.001220
 0.001244
 0.001267
 0.001290
 0.001312
 0.001334
 0.001355
 0.001376
 0.001396
 0.001415
 0.001434
 0.001453
 0.001471
 0.001489
 0.001506
 0.001523
 0.001539
 0.001555
 0.001571
 0.001586
 0.001601
 0.001615
 0.001629
 0.001643
 0.001656
 0.001669
 0.001681
 0.001693
 0.001705
 0.001717
 0.001728
 0.001739
 0.001749
 0.001759
 0.001769
 0.001779
 0.001788
 0.001797
 0.001806
 0.001814
 0.001822
 0.001830
 0.001837
 0.001844
 0.001851
 0.001858
 0.001864
 0.001870
 0.001876
 0.001882
 0.001887
 0.001892
 0.001897
 0.001901
 0.001905
 0.001909
 0.001913
 0.001916
 0.001919
 0.001922
 0.001925
 0.001927
 0.001929
 0.001931
 0.001933
 0.001934
 0.001935
 0.001936
 0.001937
 0.001937
 0.001937
 0.001937
 0.001937
 0.001936
 0.001935
 0.001934
 0.001933
 0.001931
 0.001929
 0.001927
 0.001925
 0.001922
 0.001919
 0.001916
 0.001913
 0.001909
 0.001905
 0.001901
 0.001897
 0.001892
 0.001887
 0.001882
 0.001876
 0.001870
 0.001864
 0.001858
 0.001851
 0.001844
 0.001837
 0.001830
 0.001822
 0.001814
 0.001806
 0.001797
 0.001788
 0.001779
 0.001769
 0.001759
 0.001749
 0.001739
 0.001728
 0.001717
 0.001705
 0.001693
 0.001681
 0.001669
 0.001656
 0.001643
 0.001629
 0.001615
 0.001601
 0.001586
 0.001571
 0.001555
 0.001539
 0.001523
 0.001506
 0.001489
 0.001471
 0.001453
 0.001434
 0.001415
 0.001396
 0.001376
 0.001355
 0.001334
 0.001312
 0.001290
 0.001267
 0.001244
 0.001220
 0.001195
 0.001170
 0.001144
 0.001117
 0.001090
 0.001062
 0.001033
 0.001003
 0.000973
 0.000941
 0.000909
 0.000876
 0.000841
 0.000806
 0.000769
 0.000731
 0.000692
 0.000652
 0.000610
 0.000566
 0.000521
 0.000474
 0.000425
 0.000373
 0.000319
 0.000262
 0.000203
 0.000139
 0.000072
 0.000000
 0.000000
 0.000081
 0.000157
 0.000229
 0.000297
 0.000363
 0.000425
 0.000484
 0.000541
 0.000595
 0.000648
 0.000698
 0.000747
 0.000794
 0.000839
 0.000883
 0.000925
 0.000967
 0.001007
 0.001045
 0.001083
 0.001120
 0.001155
 0.001190
 0.001223
 0.001256
 0.001288
 0.001319
 0.001349
 0.001379
 0.001407
 0.001435
 0.001462
 0.001489
 0.001515
 0.001540
 0.001565
 0.001589
 0.001612
 0.001635
 0.001657
 0.001679
 0.001700
 0.001721
 0.001741
 0.001760
 0.001779
 0.001798
 0.001816
 0.001834
 0.001851
 0.001868
 0.001884
 0.001900
 0.001915
 0.001930
 0.001945
 0.001959
 0.001973
 0.001986
 0.001999
 0.002012
 0.002024
 0.002036
 0.002047
 0.002059
 0.002069
 0.002080
 0.002090
 0.002100
 0.002109
 0.002118
 0.002127
 0.002135
 0.002143
 0.002151
 0.002158
 0.002165
 0.002172
 0.002178
 0.002185
 0.002190
 0.002196
 0.002201
 0.002206
 0.002210
 0.002215
 0.002219
 0.002222
 0.002226
 0.002229
 0.002232
 0.002234
 0.002236
 0.002238
 0.002240
 0.002241
 0.002242
 0.002243
 0.002243
 0.002243
 0.002243
 0.002243
 0.002242
 0.002241
 0.002240
 0.002238
 0.002236
 0.002234
 0.002232
 0.002229
 0.002226
 0.002222
 0.002219
 0.002215
 0.002210
 0.002206
 0.002201
 0.002196
 0.002190
 0.002185
 0.002178
 0.002172
 0.002165
 0.002158
 0.002151
 0.002143
 0.002135
 0.002127
 0.002118
 0.002109
 0.002100
 0.002090
 0.002080
 0.002069
 0.002059
 0.002047
 0.002036
 0.002024
 0.002012
 0.001999
 0.001986
 0.001973
 0.001959
 0.001945
 0.001930
 0.001915
 0.001900
 0.001884
 0.001868
 0.001851
 0.001834
 0.001816
 0.001798
 0.001779
 0.001760
 0.001741
 0.001721
 0.001700
 0.001679
 0.001657
 0.001635
 0.001612
 0.001589
 0.001565
 0.001540
 0.001515
 0.001489
 0.001462
 0.001435
 0.001407
 0.001379
 0.001349
 0.001319
 0.001288
 0.001256
 0.001223
 0.001190
 0.001155
 0.001120
 0.001083
 0.001045
 0.001007
 0.000967
 0.000925
 0.000883
 0.000839
 0.000794
 0.000747
 0.000698
 0.000648
 0.000595
 0.000541
 0.000484
 0.000425
 0.000363
 0.000297
 0.000229
 0.000157
 0.000081
 0.000000
 0.000000
 0.000089
 0.000174
 0.000254
 0.000331
 0.000404
 0.000474
 0.000541
 0.000605
 0.000666
 0.000726
 0.000783
 0.000838
 0.000892
 0.000943
 0.000993
 0.001041
 0.001088
 0.001134
 0.001178
 0.001221
 0.001262
 0.001303
 0.001342
 0.001381
 0.001418
 0.001454
 0.001490
 0.001524
 0.001558
 0.001590
 0.001622
 0.001653
 0.001684
 0.001713
 0.001742
 0.001770
 0.001797
 0.001824
 0.001850
 0.001875
 0.001900
 0.001924
 0.001948
 0.001971
 0.001993
 0.002015
 0.002036
 0.002057
 0.002077
 0.002097
 0.002116
 0.002134
 0.002152
 0.002170
 0.002187
 0.002204
 0.002220
 0.002236
 0.002251
 0.002266
 0.002280
 0.002294
 0.002308
 0.002321
 0.002334
 0.002346
 0.002358
 0.002369
 0.002380
 0.002391
 0.002401
 0.002411
 0.002421
 0.002430
 0.002439
 0.002447
 0.002455
 0.002463
 0.002470
 0.002477
 0.002484
 0.002490
 0.002496
 0.002502
 0.002507
 0.002512
 0.002517
 0.002521
 0.002525
 0.002528
 0.002531
 0.002534
 0.002537
 0.002539
 0.002541
 0.002542
 0.002543
 0.002544
 0.002545
 0.002545
 0.002545
 0.002544
 0.002543
 0.002542
 0.002541
 0.002539
 0.002537
 0.002534
 0.002531
 0.002528
 0.002525
 0.002521
 0.002517
 0.002512
 0.002507
 0.002502
 0.002496
 0.002490
 0.002484
 0.002477
 0.002470
 0.002463
 0.002455
 0.002447
 0.002439
 0.002430
 0.002421
 0.002411
 0.002401
 0.002391
 0.002380
 0.002369
 0.002358
 0.002346
 0.002334
 0.002321
 0.002308
 0.002294
 0.002280
 0.002266
 0.002251
 0.002236
 0.002220
 0.002204
 0.002187
 0.002170
 0.002152
 0.002134
 0.002116
 0.002097
 0.002077
 0.002057
 0.002036
 0.002015
 0.001993
 0.001971
 0.001948
 0.001924
 0.001900
 0.001875
 0.001850
 0.001824
 0.001797
 0.001770
 0.001742
 0.001713
 0.001684
 0.001653
 0.001622
 0.001590
 0.001558
 0.001524
 0.001490
 0.001454
 0.001418
 0.001381
 0.001342
 0.001303
 0.001262
 0.001221
 0.001178
 0.001134
 0.001088
 0.001041
 0.000993
 0.000943
 0.000892
 0.000838
 0.000783
 0.000726
 0.000666
 0.000605
 0.000541
 0.000474
 0.000404
 0.000331
 0.000254
 0.000174
 0.000089
 0.000000
 0.000000
 0.000097
 0.000190
 0.000278
 0.000363
 0.000444
 0.000521
 0.000595
 0.000666
 0.000735
 0.000801
 0.000865
 0.000927
 0.000986
 0.001044
 0.001100
 0.001154
 0.001206
 0.001257
 0.001307
 0.001355
 0.001402
 0.001447
 0.001491
 0.001534
 0.001576
 0.001617
 0.001656
 0.001695
 0.001733
 0.001769
 0.001805
 0.001840
 0.001874
 0.001907
 0.001940
 0.001971
 0.002002
 0.002032
 0.002061
 0.002089
 0.002117
 0.002144
 0.002171
 0.002196
 0.002222
 0.002246
 0.002270
 0.002293
 0.002316
 0.002338
 0.002359
 0.002380
 0.002400
 0.002420
 0.002439
 0.002458
 0.002476
 0.002494
 0.002511
 0.002528
 0.002544
 0.002560
 0.002575
 0.002590
 0.002604
 0.002618
 0.002631
 0.002644
 0.002657
 0.002669
 0.002680
 0.002692
 0.002702
 0.002713
 0.002722
 0.002732
 0.002741
 0.002750
 0.002758
 0.002766
 0.002773
 0.002780
 0.002787
 0.002793
 0.002799
 0.002805
 0.002810
 0.002814
 0.002819
 0.002823
 0.002826
 0.002829
 0.002832
 0.002835
 0.002837
 0.002838
 0.002840
 0.002841
 0.002841
 0.002841
 0.002841
 0.002841
 0.002840
 0.002838
 0.002837
 0.002835
 0.002832
 0.002829
 0.002826
 0.002823
 0.002819
 0.002814
 0.002810
 0.002805
 0.002799
 0.002793
 0.002787
 0.002780
 0.002773
 0.002766
 0.002758
 0.002750
 0.002741
 0.002732
 0.002722
 0.002713
 0.002702
 0.002692
 0.002680
 0.002669
 0.002657
 0.002644
 0.002631
 0.002618
 0.002604
 0.002590
 0.002575
 0.002560
 0.002544
 0.002528
 0.002511
 0.002494
 0.002476
 0.002458
 0.002439
 0.002420
 0.002400
 0.002380
 0.002359
 0.002338
 0.002316
 0.002293
 0.002270
 0.002246
 0.002222
 0.002196
 0.002171
 0.002144
 0.002117
 0.002089
 0.002061
 0.002032
 0.002002
 0.001971
 0.001940
 0.001907
 0.001874
 0.001840
 0.001805
 0.001769
 0.001733
 0.001695
 0.001656
 0.001617
 0.001576
 0.001534
 0.001491
 0.001447
 0.001402
 0.001355
 0.001307
 0.001257
 0.001206
 0.001154