# vtk DataFile Version 2.0 
Grid
ASCII
DATASET STRUCTURED_GRID
DIMENSIONS 100 100 1
POINTS 10000 float
0.000000 0.000000 0.000000
0.010101 0.000000 0.000000
0.020202 0.000000 0.000000
0.030303 0.000000 0.000000
0.040404 0.000000 0.000000
0.050505 0.000000 0.000000
0.060606 0.000000 0.000000
0.070707 0.000000 0.000000
0.080808 0.000000 0.000000
0.090909 0.000000 0.000000
0.101010 0.000000 0.000000
0.111111 0.000000 0.000000
0.121212 0.000000 0.000000
0.131313 0.000000 0.000000
0.141414 0.000000 0.000000
0.151515 0.000000 0.000000
0.161616 0.000000 0.000000
0.171717 0.000000 0.000000
0.181818 0.000000 0.000000
0.191919 0.000000 0.000000
0.202020 0.000000 0.000000
0.212121 0.000000 0.000000
0.222222 0.000000 0.000000
0.232323 0.000000 0.000000
0.242424 0.000000 0.000000
0.252525 0.000000 0.000000
0.262626 0.000000 0.000000
0.272727 0.000000 0.000000
0.282828 0.000000 0.000000
0.292929 0.000000 0.000000
0.303030 0.000000 0.000000
0.313131 0.000000 0.000000
0.323232 0.000000 0.000000
0.333333 0.000000 0.000000
0.343434 0.000000 0.000000
0.353535 0.000000 0.000000
0.363636 0.000000 0.000000
0.373737 0.000000 0.000000
0.383838 0.000000 0.000000
0.393939 0.000000 0.000000
0.404040 0.000000 0.000000
0.414141 0.000000 0.000000
0.424242 0.000000 0.000000
0.434343 0.000000 0.000000
0.444444 0.000000 0.000000
0.454545 0.000000 0.000000
0.464646 0.000000 0.000000
0.474747 0.000000 0.000000
0.484848 0.000000 0.000000
0.494949 0.000000 0.000000
0.505051 0.000000 0.000000
0.515152 0.000000 0.000000
0.525253 0.000000 0.000000
0.535354 0.000000 0.000000
0.545455 0.000000 0.000000
0.555556 0.000000 0.000000
0.565657 0.000000 0.000000
0.575758 0.000000 0.000000
0.585859 0.000000 0.000000
0.595960 0.000000 0.000000
0.606061 0.000000 0.000000
0.616162 0.000000 0.000000
0.626263 0.000000 0.000000
0.636364 0.000000 0.000000
0.646465 0.000000 0.000000
0.656566 0.000000 0.000000
0.666667 0.000000 0.000000
0.676768 0.000000 0.000000
0.686869 0.000000 0.000000
0.696970 0.000000 0.000000
0.707071 0.000000 0.000000
0.717172 0.000000 0.000000
0.727273 0.000000 0.000000
0.737374 0.000000 0.000000
0.747475 0.000000 0.000000
0.757576 0.000000 0.000000
0.767677 0.000000 0.000000
0.777778 0.000000 0.000000
0.787879 0.000000 0.000000
0.797980 0.000000 0.000000
0.808081 0.000000 0.000000
0.818182 0.000000 0.000000
0.828283 0.000000 0.000000
0.838384 0.000000 0.000000
0.848485 0.000000 0.000000
0.858586 0.000000 0.000000
0.868687 0.000000 0.000000
0.878788 0.000000 0.000000
0.888889 0.000000 0.000000
0.898990 0.000000 0.000000
0.909091 0.000000 0.000000
0.919192 0.000000 0.000000
0.929293 0.000000 0.000000
0.939394 0.000000 0.000000
0.949495 0.000000 0.000000
0.959596 0.000000 0.000000
0.969697 0.000000 0.000000
0.979798 0.000000 0.000000
0.989899 0.000000 0.000000
1.000000 0.000000 0.000000
0.000000 0.010101 0.000000
0.010101 0.010101 0.000000
0.020202 0.010101 0.000000
0.030303 0.010101 0.000000
0.040404 0.010101 0.000000
0.050505 0.010101 0.000000
0.060606 0.010101 0.000000
0.070707 0.010101 0.000000
0.080808 0.010101 0.000000
0.090909 0.010101 0.000000
0.101010 0.010101 0.000000
0.111111 0.010101 0.000000
0.121212 0.010101 0.000000
0.131313 0.010101 0.000000
0.141414 0.010101 0.000000
0.151515 0.010101 0.000000
0.161616 0.010101 0.000000
0.171717 0.010101 0.000000
0.181818 0.010101 0.000000
0.191919 0.010101 0.000000
0.202020 0.010101 0.000000
0.212121 0.010101 0.000000
0.222222 0.010101 0.000000
0.232323 0.010101 0.000000
0.242424 0.010101 0.000000
0.252525 0.010101 0.000000
0.262626 0.010101 0.000000
0.272727 0.010101 0.000000
0.282828 0.010101 0.000000
0.292929 0.010101 0.000000
0.303030 0.010101 0.000000
0.313131 0.010101 0.000000
0.323232 0.010101 0.000000
0.333333 0.010101 0.000000
0.343434 0.010101 0.000000
0.353535 0.010101 0.000000
0.363636 0.010101 0.000000
0.373737 0.010101 0.000000
0.383838 0.010101 0.000000
0.393939 0.010101 0.000000
0.404040 0.010101 0.000000
0.414141 0.010101 0.000000
0.424242 0.010101 0.000000
0.434343 0.010101 0.000000
0.444444 0.010101 0.000000
0.454545 0.010101 0.000000
0.464646 0.010101 0.000000
0.474747 0.010101 0.000000
0.484848 0.010101 0.000000
0.494949 0.010101 0.000000
0.505051 0.010101 0.000000
0.515152 0.010101 0.000000
0.525253 0.010101 0.000000
0.535354 0.010101 0.000000
0.545455 0.010101 0.000000
0.555556 0.010101 0.000000
0.565657 0.010101 0.000000
0.575758 0.010101 0.000000
0.585859 0.010101 0.000000
0.595960 0.010101 0.000000
0.606061 0.010101 0.000000
0.616162 0.010101 0.000000
0.626263 0.010101 0.000000
0.636364 0.010101 0.000000
0.646465 0.010101 0.000000
0.656566 0.010101 0.000000
0.666667 0.010101 0.000000
0.676768 0.010101 0.000000
0.686869 0.010101 0.000000
0.696970 0.010101 0.000000
0.707071 0.010101 0.000000
0.717172 0.010101 0.000000
0.727273 0.010101 0.000000
0.737374 0.010101 0.000000
0.747475 0.010101 0.000000
0.757576 0.010101 0.000000
0.767677 0.010101 0.000000
0.777778 0.010101 0.000000
0.787879 0.010101 0.000000
0.797980 0.010101 0.000000
0.808081 0.010101 0.000000
0.818182 0.010101 0.000000
0.828283 0.010101 0.000000
0.838384 0.010101 0.000000
0.848485 0.010101 0.000000
0.858586 0.010101 0.000000
0.868687 0.010101 0.000000
0.878788 0.010101 0.000000
0.888889 0.010101 0.000000
0.898990 0.010101 0.000000
0.909091 0.010101 0.000000
0.919192 0.010101 0.000000
0.929293 0.010101 0.000000
0.939394 0.010101 0.000000
0.949495 0.010101 0.000000
0.959596 0.010101 0.000000
0.969697 0.010101 0.000000
0.979798 0.010101 0.000000
0.989899 0.010101 0.000000
1.000000 0.010101 0.000000
0.000000 0.020202 0.000000
0.010101 0.020202 0.000000
0.020202 0.020202 0.000000
0.030303 0.020202 0.000000
0.040404 0.020202 0.000000
0.050505 0.020202 0.000000
0.060606 0.020202 0.000000
0.070707 0.020202 0.000000
0.080808 0.020202 0.000000
0.090909 0.020202 0.000000
0.101010 0.020202 0.000000
0.111111 0.020202 0.000000
0.121212 0.020202 0.000000
0.131313 0.020202 0.000000
0.141414 0.020202 0.000000
0.151515 0.020202 0.000000
0.161616 0.020202 0.000000
0.171717 0.020202 0.000000
0.181818 0.020202 0.000000
0.191919 0.020202 0.000000
0.202020 0.020202 0.000000
0.212121 0.020202 0.000000
0.222222 0.020202 0.000000
0.232323 0.020202 0.000000
0.242424 0.020202 0.000000
0.252525 0.020202 0.000000
0.262626 0.020202 0.000000
0.272727 0.020202 0.000000
0.282828 0.020202 0.000000
0.292929 0.020202 0.000000
0.303030 0.020202 0.000000
0.313131 0.020202 0.000000
0.323232 0.020202 0.000000
0.333333 0.020202 0.000000
0.343434 0.020202 0.000000
0.353535 0.020202 0.000000
0.363636 0.020202 0.000000
0.373737 0.020202 0.000000
0.383838 0.020202 0.000000
0.393939 0.020202 0.000000
0.404040 0.020202 0.000000
0.414141 0.020202 0.000000
0.424242 0.020202 0.000000
0.434343 0.020202 0.000000
0.444444 0.020202 0.000000
0.454545 0.020202 0.000000
0.464646 0.020202 0.000000
0.474747 0.020202 0.000000
0.484848 0.020202 0.000000
0.494949 0.020202 0.000000
0.505051 0.020202 0.000000
0.515152 0.020202 0.000000
0.525253 0.020202 0.000000
0.535354 0.020202 0.000000
0.545455 0.020202 0.000000
0.555556 0.020202 0.000000
0.565657 0.020202 0.000000
0.575758 0.020202 0.000000
0.585859 0.020202 0.000000
0.595960 0.020202 0.000000
0.606061 0.020202 0.000000
0.616162 0.020202 0.000000
0.626263 0.020202 0.000000
0.636364 0.020202 0.000000
0.646465 0.020202 0.000000
0.656566 0.020202 0.000000
0.666667 0.020202 0.000000
0.676768 0.020202 0.000000
0.686869 0.020202 0.000000
0.696970 0.020202 0.000000
0.707071 0.020202 0.000000
0.717172 0.020202 0.000000
0.727273 0.020202 0.000000
0.737374 0.020202 0.000000
0.747475 0.020202 0.000000
0.757576 0.020202 0.000000
0.767677 0.020202 0.000000
0.777778 0.020202 0.000000
0.787879 0.020202 0.000000
0.797980 0.020202 0.000000
0.808081 0.020202 0.000000
0.818182 0.020202 0.000000
0.828283 0.020202 0.000000
0.838384 0.020202 0.000000
0.848485 0.020202 0.000000
0.858586 0.020202 0.000000
0.868687 0.020202 0.000000
0.878788 0.020202 0.000000
0.888889 0.020202 0.000000
0.898990 0.020202 0.000000
0.909091 0.020202 0.000000
0.919192 0.020202 0.000000
0.929293 0.020202 0.000000
0.939394 0.020202 0.000000
0.949495 0.020202 0.000000
0.959596 0.020202 0.000000
0.969697 0.020202 0.000000
0.979798 0.020202 0.000000
0.989899 0.020202 0.000000
1.000000 0.020202 0.000000
0.000000 0.030303 0.000000
0.010101 0.030303 0.000000
0.020202 0.030303 0.000000
0.030303 0.030303 0.000000
0.040404 0.030303 0.000000
0.050505 0.030303 0.000000
0.060606 0.030303 0.000000
0.070707 0.030303 0.000000
0.080808 0.030303 0.000000
0.090909 0.030303 0.000000
0.101010 0.030303 0.000000
0.111111 0.030303 0.000000
0.121212 0.030303 0.000000
0.131313 0.030303 0.000000
0.141414 0.030303 0.000000
0.151515 0.030303 0.000000
0.161616 0.030303 0.000000
0.171717 0.030303 0.000000
0.181818 0.030303 0.000000
0.191919 0.030303 0.000000
0.202020 0.030303 0.000000
0.212121 0.030303 0.000000
0.222222 0.030303 0.000000
0.232323 0.030303 0.000000
0.242424 0.030303 0.000000
0.252525 0.030303 0.000000
0.262626 0.030303 0.000000
0.272727 0.030303 0.000000
0.282828 0.030303 0.000000
0.292929 0.030303 0.000000
0.303030 0.030303 0.000000
0.313131 0.030303 0.000000
0.323232 0.030303 0.000000
0.333333 0.030303 0.000000
0.343434 0.030303 0.000000
0.353535 0.030303 0.000000
0.363636 0.030303 0.000000
0.373737 0.030303 0.000000
0.383838 0.030303 0.000000
0.393939 0.030303 0.000000
0.404040 0.030303 0.000000
0.414141 0.030303 0.000000
0.424242 0.030303 0.000000
0.434343 0.030303 0.000000
0.444444 0.030303 0.000000
0.454545 0.030303 0.000000
0.464646 0.030303 0.000000
0.474747 0.030303 0.000000
0.484848 0.030303 0.000000
0.494949 0.030303 0.000000
0.505051 0.030303 0.000000
0.515152 0.030303 0.000000
0.525253 0.030303 0.000000
0.535354 0.030303 0.000000
0.545455 0.030303 0.000000
0.555556 0.030303 0.000000
0.565657 0.030303 0.000000
0.575758 0.030303 0.000000
0.585859 0.030303 0.000000
0.595960 0.030303 0.000000
0.606061 0.030303 0.000000
0.616162 0.030303 0.000000
0.626263 0.030303 0.000000
0.636364 0.030303 0.000000
0.646465 0.030303 0.000000
0.656566 0.030303 0.000000
[...]
POINT_DATA 10000
SCALARS P float 1
LOOKUP_TABLE default
 0.000000
 0.010000
 0.020000
 0.030000
 0.040000
 0.050000
 0.060000
 0.070000
 0.080000
 0.090000
 0.100000
 0.110000
 0.120000
 0.130000
 0.140000
 0.150000
 0.160000
 0.170000
 0.180000
 0.190000
 0.200000
 0.210000
 0.220000
 0.230000
 0.240000
 0.250000
 0.260000
 0.270000
 0.280000
 0.290000
 0.300000
 0.310000
 0.320000
 0.330000
 0.340000
 0.350000
 0.360000
 0.370000
 0.380000
 0.390000
 0.400000
 0.410000
 0.420000
 0.430000
 0.440000
 0.450000
 0.460000
 0.470000
 0.480000
 0.490000
 0.500000
 0.510000
 0.520000
 0.530000
 0.540000
 0.550000
 0.560000
 0.570000
 0.580000
 0.590000
 0.600000
 0.610000
 0.620000
 0.630000
 0.640000
 0.650000
 0.660000
 0.670000
 0.680000
 0.690000
 0.700000
 0.710000
 0.720000
 0.730000
 0.740000
 0.750000
 0.760000
 0.770000
 0.780000
 0.790000
 0.800000
 0.810000
 0.820000
 0.830000
 0.840000
 0.850000
 0.860000
 0.870000
 0.880000
 0.890000
 0.900000
 0.910000
 0.920000
 0.930000
 0.940000
 0.950000
 0.960000
 0.970000
 0.980000
 0.990000
 0.000000
 0.010101
 0.020201
 0.030302
 0.040402
 0.050503
 0.060603
 0.070704
 0.080804
 0.090905
 0.101005
 0.111106
 0.121206
 0.131307
 0.141407
 0.151508
 0.161608
 0.171709
 0.181809
 0.191910
 0.202010
 0.212111
 0.222211
 0.232312
 0.242412
 0.252513
 0.262613
 0.272714
 0.282814
 0.292915
 0.303015
 0.313116
 0.323216
 0.333317
 0.343417
 0.353518
 0.363618
 0.373719
 0.383819
 0.393920
 0.404020
 0.414121
 0.424221
 0.434322
 0.444422
 0.454523
 0.464623
 0.474724
 0.484824
 0.494925
 0.505025
 0.515126
 0.525226
 0.535327
 0.545427
 0.555528
 0.565628
 0.575729
 0.585829
 0.595930
 0.606030
 0.616131
 0.626231
 0.636332
 0.646432
 0.656533
 0.666633
 0.676734
 0.686834
 0.696935
 0.707035
 0.717136
 0.727236
 0.737337
 0.747437
 0.757538
 0.767638
 0.777739
 0.787839
 0.797940
 0.808040
 0.818141
 0.828241
 0.838342
 0.848442
 0.858543
 0.868643
 0.878744
 0.888844
 0.898945
 0.909045
 0.919146
 0.929246
 0.939347
 0.949447
 0.959548
 0.969648
 0.979749
 0.989849
 0.999950
 0.000000
 0.010202
 0.020404
 0.030606
 0.040808
 0.051010
 0.061212
 0.071414
 0.081616
 0.091818
 0.102020
 0.112222
 0.122424
 0.132626
 0.142828
 0.153030
 0.163232
 0.173434
 0.183636
 0.193838
 0.204040
 0.214242
 0.224444
 0.234646
 0.244848
 0.255050
 0.265252
 0.275454
 0.285656
 0.295858
 0.306060
 0.316262
 0.326464
 0.336666
 0.346868
 0.357070
 0.367273
 0.377475
 0.387677
 0.397879
 0.408081
 0.418283
 0.428485
 0.438687
 0.448889
 0.459091
 0.469293
 0.479495
 0.489697
 0.499899
 0.510101
 0.520303
 0.530505
 0.540707
 0.550909
 0.561111
 0.571313
 0.581515
 0.591717
 0.601919
 0.612121
 0.622323
 0.632525
 0.642727
 0.652929
 0.663131
 0.673333
 0.683535
 0.693737
 0.703939
 0.714141
 0.724343
 0.734545
 0.744747
 0.754949
 0.765151
 0.775353
 0.785555
 0.795757
 0.805959
 0.816161
 0.826363
 0.836565
 0.846767
 0.856969
 0.867171
 0.877373
 0.887575
 0.897777
 0.907979
 0.918181
 0.928383
 0.938585
 0.948787
 0.958989
 0.969191
 0.979393
 0.989595
 0.999797
 1.009999
 0.000000
 0.010305
 0.020609
 0.030914
 0.041218
 0.051523
 0.061827
 0.072132
 0.082436
 0.092741
 0.103045
 0.113350
 0.123655
 0.133959
 0.144264
 0.154568
 0.164873
 0.175177
 0.185482
 0.195786
 0.206091
 0.216395
 0.226700
 0.237005
 0.247309
 0.257614
 0.267918
 0.278223
 0.288527
 0.298832
 0.309136
 0.319441
 0.329745
 0.340050
 0.350355
 0.360659
 0.370964
 0.381268
 0.391573
 0.401877
 0.412182
 0.422486
 0.432791
 0.443095
 0.453400
 0.463705
 0.474009
 0.484314
 0.494618
 0.504923
 0.515227
 0.525532
 0.535836
 0.546141
 0.556446
 0.566750
 0.577055
 0.587359
 0.597664
 0.607968
 0.618273
 0.628577
 0.638882
 0.649186
 0.659491
 0.669796
 0.680100
 0.690405
 0.700709
 0.711014
 0.721318
 0.731623
 0.741927
 0.752232
 0.762536
 0.772841
 0.783145
 0.793450
 0.803755
 0.814059
 0.824364
 0.834668
 0.844973
 0.855277
 0.865582
 0.875886
 0.886191
 0.896495
 0.906800
 0.917105
 0.927409
 0.937714
 0.948018
 0.958323
 0.968627
 0.978932
 0.989236
 0.999541
 1.009846
 1.020150
 0.000000
 0.010408
 0.020816
 0.031224
 0.041632
 0.052041
 0.062449
 0.072857
 0.083265
 0.093673
 0.104081
 0.114489
 0.124897
 0.135305
 0.145714
 0.156122
 0.166530
 0.176938
 0.187346
 0.197754
 0.208162
 0.218570
 0.228978
 0.239387
 0.249795
 0.260203
 0.270611
 0.281019
 0.291427
 0.301835
 0.312243
 0.322651
 0.333059
 0.343468
 0.353876
 0.364284
 0.374692
 0.385100
 0.395508
 0.405916
 0.416324
 0.426732
 0.437141
 0.447549
 0.457957
 0.468365
 0.478773
 0.489181
 0.499589
 0.509997
 0.520405
 0.530814
 0.541222
 0.551630
 0.562038
 0.572446
 0.582854
 0.593262
 0.603670
 0.614078
 0.624487
 0.634895
 0.645303
 0.655711
 0.666119
 0.676527
 0.686935
 0.697343
 0.707751
 0.718160
 0.728568
 0.738976
 0.749384
 0.759792
 0.770200
 0.780608
 0.791016
 0.801424
 0.811832
 0.822241
 0.832649
 0.843057
 0.853465
 0.863873
 0.874281
 0.884689
 0.895097
 0.905505
 0.915914
 0.926322
 0.936730
 0.947138
 0.957546
 0.967954
 0.978362
 0.988770
 0.999178
 1.009586
 1.019995
 1.030403
 0.000000
 0.010513
 0.021025
 0.031538
 0.042051
 0.052564
 0.063076
 0.073589
 0.084102
 0.094614
 0.105127
 0.115640
 0.126153
 0.136665
 0.147178
 0.157691
 0.168203
 0.178716
 0.189229
 0.199742
 0.210254
 0.220767
 0.231280
 0.241792
 0.252305
 0.262818
 0.273331
 0.283843
 0.294356
 0.304869
 0.315381
 0.325894
 0.336407
 0.346920
 0.357432
 0.367945
 0.378458
 0.388970
 0.399483
 0.409996
 0.420509
 0.431021
 0.441534
 0.452047
 0.462559
 0.473072
 0.483585
 0.494097
 0.504610
 0.515123
 0.525636
 0.536148
 0.546661
 0.557174
 0.567686
 0.578199
 0.588712
 0.599225
 0.609737
 0.620250
 0.630763
 0.641275
 0.651788
 0.662301
 0.672814
 0.683326
 0.693839
 0.704352
 0.714864
 0.725377
 0.735890
 0.746403
 0.756915
 0.767428
 0.777941
 0.788453
 0.798966
 0.809479
 0.819992
 0.830504
 0.841017
 0.851530
 0.862042
 0.872555
 0.883068
 0.893581
 0.904093
 0.914606
 0.925119
 0.935631
 0.946144
 0.956657
 0.967169
 0.977682
 0.988195
 0.998708
 1.009220
 1.019733
 1.030246
 1.040758
 0.000000
 0.010618
 0.021237
 0.031855
 0.042473
 0.053092
 0.063710
 0.074329
 0.084947
 0.095565
 0.106184
 0.116802
 0.127420
 0.138039
 0.148657
 0.159276
 0.169894
 0.180512
 0.191131
 0.201749
 0.212367
 0.222986
 0.233604
 0.244222
 0.254841
 0.265459
 0.276078
 0.286696
 0.297314
 0.307933
 0.318551
 0.329169
 0.339788
 0.350406
 0.361025
 0.371643
 0.382261
 0.392880
 0.403498
 0.414116
 0.424735
 0.435353
 0.445971
 0.456590
 0.467208
 0.477827
 0.488445
 0.499063
 0.509682
 0.520300
 0.530918
 0.541537
 0.552155
 0.562773
 0.573392
 0.584010
 0.594629
 0.605247
 0.615865
 0.626484
 0.637102
 0.647720
 0.658339
 0.668957
 0.679576
 0.690194
 0.700812
 0.711431
 0.722049
 0.732667
 0.743286
 0.753904
 0.764522
 0.775141
 0.785759
 0.796378
 0.806996
 0.817614
 0.828233
 0.838851
 0.849469
 0.860088
 0.870706
 0.881324
 0.891943
 0.902561
 0.913180
 0.923798
 0.934416
 0.945035
 0.955653
 0.966271
 0.976890
 0.987508
 0.998126
 1.008745
 1.019363
 1.029981
 1.040600
 1.051218
 0.000000
 0.010725
 0.021450
 0.032175
 0.042900
 0.053625
 0.064351
 0.075076
 0.085801
 0.096526
 0.107251
 0.117976
 0.128701
 0.139426
 0.150151
 0.160876
 0.171601
 0.182326
 0.193052
 0.203777
 0.214502
 0.225227
 0.235952
 0.246677
 0.257402
 0.268127
 0.278852
 0.289577
 0.300302
 0.311027
 0.321753
 0.332478
 0.343203
 0.353928
 0.364653
 0.375378
 0.386103
 0.396828
 0.407553
 0.418278
 0.429003
 0.439728
 0.450454
 0.461179
 0.471904
 0.482629
 0.493354
 0.504079
 0.514804
 0.525529
 0.536254
 0.546979
 0.557704
 0.568429
 0.579155
 0.589880
 0.600605
 0.611330
 0.622055
 0.632780
 0.643505
 0.654230
 0.664955
 0.675680
 0.686405
 0.697130
 0.707856
 0.718581
 0.729306
 0.740031
 0.750756
 0.761481
 0.772206
 0.782931
 0.793656
 0.804381
 0.815106
 0.825831
 0.836556
 0.847282
 0.858007
 0.868732
 0.879457
 0.890182
 0.900907
 0.911632
 0.922357
 0.933082
 0.943807
 0.954532
 0.965257
 0.975983
 0.986708
 0.997433
 1.008158
 1.018883
 1.029608
 1.040333
 1.051058
 1.061783
 0.000000
 0.010833
 0.021666
 0.032499
 0.043331
 0.054164
 0.064997
 0.075830
 0.086663
 0.097496
 0.108329
 0.119162
 0.129994
 0.140827
 0.151660
 0.162493
 0.173326
 0.184159
 0.194992
 0.205825
 0.216657
 0.227490
 0.238323
 0.249156
 0.259989
 0.270822
 0.281655
 0.292488
 0.303320
 0.314153
 0.324986
 0.335819
 0.346652
 0.357485
 0.368318
 0.379151
 0.389983
 0.400816
 0.411649
 0.422482
 0.433315
 0.444148
 0.454981
 0.465814
 0.476646
 0.487479
 0.498312
 0.509145
 0.519978
 0.530811
 0.541644
 0.552477
 0.563309
 0.574142
 0.584975
 0.595808
 0.606641
 0.617474
 0.628307
 0.639140
 0.649972
 0.660805
 0.671638
 0.682471
 0.693304
 0.704137
 0.714970
 0.725802
 0.736635
 0.747468
 0.758301
 0.769134
 0.779967
 0.790800
 0.801633
 0.812465
 0.823298
 0.834131
 0.844964
 0.855797
 0.866630
 0.877463
 0.888296
 0.899128
 0.909961
 0.920794
 0.931627
 0.942460
 0.953293
 0.964126
 0.974958
 0.985791
 0.996624
 1.007457
 1.018290
 1.029123
 1.039956
 1.050788
 1.061621
 1.072454
 0.000000
 0.010942
 0.021883
 0.032825
 0.043767
 0.054709
 0.065650
 0.076592
 0.087534
 0.098476
 0.109417
 0.120359
 0.131301
 0.142243
 0.153184
 0.164126
 0.175068
 0.186010
 0.196951
 0.207893
 0.218835
 0.229777
 0.240718
 0.251660
 0.262602
 0.273544
 0.284485
 0.295427
 0.306369
 0.317311
 0.328252
 0.339194
 0.350136
 0.361078
 0.372019
 0.382961
 0.393903
 0.404845
 0.415786
 0.426728
 0.437670
 0.448612
 0.459553
 0.470495
 0.481437
 0.492379
 0.503320
 0.514262
 0.525204
 0.536146
 0.547087
 0.558029
 0.568971
 0.579913
 0.590854
 0.601796
 0.612738
 0.623679
 0.634621
 0.645563
 0.656505
 0.667446
 0.678388
 0.689330
 0.700272
 0.711213
 0.722155
 0.733097
 0.744039
 0.754980
 0.765922
 0.776864
 0.787806
 0.798747
 0.809689
 0.820631
 0.831573
 0.842514
 0.853456
 0.864398
 0.875340
 0.886281
 0.897223
 0.908165
 0.919107
 0.930048
 0.940990
 0.951932
 0.962873
 0.973815
 0.984757
 0.995699
 1.006640
 1.017582
 1.028524
 1.039466
 1.050407
 1.061349
 1.072291
 1.083233
 0.000000
 0.011052
 0.022103
 0.033155
 0.044207
 0.055259
 0.066310
 0.077362
 0.088414
 0.099465
 0.110517
 0.121569
 0.132621
 0.143672
 0.154724
 0.165776
 0.176827
 0.187879
 0.198931
 0.209983
 0.221034
 0.232086
 0.243138
 0.254189
 0.265241
 0.276293
 0.287345
 0.298396
 0.309448
 0.320500
 0.331551
 0.342603
 0.353655
 0.364707
 0.375758
 0.386810
 0.397862
 0.408913
 0.419965
 0.431017
 0.442069
 0.453120
 0.464172
 0.475224
 0.486275
 0.497327
 0.508379
 0.519430
 0.530482
 0.541534
 0.552586
 0.563637
 0.574689
 0.585741
 0.596792
 0.607844
 0.618896
 0.629948
 0.640999
 0.652051
 0.663103
 0.674154
 0.685206
 0.696258
 0.707310
 0.718361
 0.729413
 0.740465
 0.751516
 0.762568
 0.773620
 0.784672
 0.795723
 0.806775
 0.817827
 0.828878
 0.839930
 0.850982
 0.862033
 0.873085
 0.884137
 0.895189
 0.906240
 0.917292
 0.928344
 0.939395
 0.950447
 0.961499
 0.972551
 0.983602
 0.994654
 1.005706
 1.016757
 1.027809
 1.038861
 1.049912
 1.060964
 1.072016
 1.083068
 1.094119
 0.000000
 0.011163
 0.022326
 0.033488
 0.044651
 0.055814
 0.066977
 0.078139
 0.089302
 0.100465
 0.111628
 0.122791
 0.133953
 0.145116
 0.156279
 0.167442
 0.178605
 0.189767
 0.200930
 0.212093
 0.223256
 0.234418
 0.245581
 0.256744
 0.267907
 0.279070
 0.290232
 0.301395
 0.312558
 0.323721
 0.334884
 0.346046
 0.357209
 0.368372
 0.379535
 0.390697
 0.401860
 0.413023
 0.424186
 0.435349
 0.446511
 0.457674
 0.468837
 0.480000
 0.491163
 0.502325
 0.513488
 0.524651
 0.535814
 0.546976
 0.558139
 0.569302
 0.580465
 0.591628
 0.602790
 0.613953
 0.625116
 0.636279
 0.647441
 0.658604
 0.669767
 0.680930
 0.692093
 0.703255
 0.714418
 0.725581
 0.736744
 0.747906
 0.759069
 0.770232
 0.781395
 0.792558
 0.803720
 0.814883
 0.826046
 0.837209
 0.848372
 0.859534
 0.870697
 0.881860
 0.893023
 0.904185
 0.915348
 0.926511
 0.937674
 0.948836
 0.959999
 0.971162
 0.982325
 0.993488
 1.004650
 1.015813
 1.026976
 1.038139
 1.049301
 1.060464
 1.071627
 1.082790
 1.093953
 1.105115
 0.000000
 0.011275
 0.022550
 0.033825
 0.045100
 0.056375
 0.067650
 0.078925
 0.090200
 0.101475
 0.112750
 0.124025
 0.135300
 0.146575
 0.157850
 0.169125
 0.180400
 0.191675
 0.202950
 0.214224
 0.225499
 0.236774
 0.248049
 0.259324
 0.270599
 0.281874
 0.293149
 0.304424
 0.315699
 0.326974
 0.338249
 0.349524
 0.360799
 0.372074
 0.383349
 0.394624
 0.405899
 0.417174
 0.428449
 0.439724
 0.450999
 0.462274
 0.473549
 0.484824
 0.496099
 0.507374
 0.518649
 0.529924
 0.541199
 0.552474
 0.563749
 0.575024
 0.586299
 0.597574
 0.608848
 0.620123
 0.631398
 0.642673
 0.653948
 0.665223
 0.676498
 0.687773
 0.699048
 0.710323
 0.721598
 0.732873
 0.744148
 0.755423
 0.766698
 0.777973
 0.789248
 0.800523
 0.811798
 0.823073
 0.834348
 0.845623
 0.856898
 0.868173
 0.879448
 0.890723
 0.901998
 0.913273
 0.924548
 0.935823
 0.947098
 0.958372
 0.969647
 0.980922
 0.992197
 1.003472
 1.014747
 1.026022
 1.037297
 1.048572
 1.059847
 1.071122
 1.082397
 1.093672
 1.104947
 1.116222
 0.000000
 0.011388
 0.022777
 0.034165
 0.045553
 0.056941
 0.068330
 0.079718
 0.091106
 0.102495
 0.113883
 0.125271
 0.136659
 0.148048
 0.159436
 0.170824
 0.182213
 0.193601
 0.204989
 0.216377
 0.227766
 0.239154
 0.250542
 0.261931
 0.273319
 0.284707
 0.296096
 0.307484
 0.318872
 0.330260
 0.341649
 0.353037
 0.364425
 0.375814
 0.387202
 0.398590
 0.409978
 0.421367
 0.432755
 0.444143
 0.455532
 0.466920
 0.478308
 0.489696
 0.501085
 0.512473
 0.523861
 0.535250
 0.546638
 0.558026
 0.569414
 0.580803
 0.592191
 0.603579
 0.614968
 0.626356
 0.637744
 0.649132
 0.660521
 0.671909
 0.683297
 0.694686
 0.706074
 0.717462
 0.728850
 0.740239
 0.751627
 0.763015
 0.774404
 0.785792
 0.797180
 0.808568
 0.819957
 0.831345
 0.842733
 0.854121
 0.865510
 0.876898
 0.888286
 0.899675
 0.911063
 0.922451
 0.933839
 0.945228
 0.956616
 0.968004
 0.979393
 0.990781
 1.002169
 1.013557
 1.024946
 1.036334
 1.047722
 1.059110
 1.070499
 1.081887
 1.093275
 1.104664
 1.116052
 1.127440
 0.000000
 0.011503
 0.023005
 0.034508
 0.046011
 0.057514
 0.069016
 0.080519
 0.092022
 0.103525
 0.115027
 0.126530
 0.138033
 0.149536
 0.161038
 0.172541
 0.184044
 0.195547
 0.207049
 0.218552
 0.230055
 0.241558
 0.253060
 0.264563
 0.276066
 0.287569
 0.299071
 0.310574
 0.322077
 0.333580
 0.345082
 0.356585
 0.368088
 0.379591
 0.391093
 0.402596
 0.414099
 0.425601
 0.437104
 0.448607
 0.460110
 0.471612
 0.483115
 0.494618
 0.506121
 0.517623
 0.529126
 0.540629
 0.552132
 0.563634
 0.575137
 0.586640
 0.598143
 0.609645
 0.621148
 0.632651
 0.644154
 0.655656
 0.667159
 0.678662
 0.690165
 0.701667
 0.713170
 0.724673
 0.736175
 0.747678
 0.759181
 0.770684
 0.782186
 0.793689
 0.805192
 0.816695
 0.828197
 0.839700
 0.851203
 0.862706
 0.874208
 0.885711
 0.897214
 0.908716
 0.920219
 0.931722
 0.943225
 0.954727
 0.966230
 0.977733
 0.989236
 1.000738
 1.012241
 1.023744
 1.035247
 1.046749
 1.058252
 1.069755
 1.081257
 1.092760
 1.104263
 1.115766
 1.127268
 1.138771
 0.000000
 0.011618
 0.023237
 0.034855
 0.046473
 0.058092
 0.069710
 0.081328
 0.092947
 0.104565
 0.116183
 0.127802
 0.139420
 0.151039
 0.162657
 0.174275
 0.185894
 0.197512
 0.209130
 0.220749
 0.232367
 0.243985
 0.255604
 0.267222
 0.278840
 0.290459
 0.302077
 0.313695
 0.325314
 0.336932
 0.348550
 0.360169
 0.371787
 0.383405
 0.395024
 0.406642
 0.418261
 0.429879
 0.441497
 0.453116
 0.464734
 0.476352
 0.487971
 0.499589
 0.511207
 0.522826
 0.534444
 0.546062
 0.557681
 0.569299
 0.580917
 0.592536
 0.604154
 0.615772
 0.627391
 0.639009
 0.650627
 0.662246
 0.673864
 0.685482
 0.697101
 0.708719
 0.720337
 0.731956
 0.743574
 0.755193
 0.766811
 0.778429
 0.790048
 0.801666
 0.813284
 0.824903
 0.836521
 0.848139
 0.859758
 0.871376
 0.882994
 0.894613
 0.906231
 0.917849
 0.929468
 0.941086
 0.952704
 0.964323
 0.975941
 0.987559
 0.999178
 1.010796
 1.022414
 1.034033
 1.045651
 1.057269
 1.068888
 1.080506
 1.092124
 1.103743
 1.115361
 1.126979
 1.138598
 1.150216
 0.000000
 0.011735
 0.023470
 0.035205
 0.046940
 0.058676
 0.070411
 0.082146
 0.093881
 0.105616
 0.117351
 0.129086
 0.140821
 0.152556
 0.164292
 0.176027
 0.187762
 0.199497
 0.211232
 0.222967
 0.234702
 0.246437
 0.258173
 0.269908
 0.281643
 0.293378
 0.305113
 0.316848
 0.328583
 0.340318
 0.352053
 0.363789
 0.375524
 0.387259
 0.398994
 0.410729
 0.422464
 0.434199
 0.445934
 0.457669
 0.469405
 0.481140
 0.492875
 0.504610
 0.516345
 0.528080
 0.539815
 0.551550
 0.563285
 0.575021
 0.586756
 0.598491
 0.610226
 0.621961
 0.633696
 0.645431
 0.657166
 0.668901
 0.680637
 0.692372
 0.704107
 0.715842
 0.727577
 0.739312
 0.751047
 0.762782
 0.774517
 0.786253
 0.797988
 0.809723
 0.821458
 0.833193
 0.844928
 0.856663
 0.868398
 0.880133
 0.891868
 0.903604
 0.915339
 0.927074
 0.938809
 0.950544
 0.962279
 0.974014
 0.985749
 0.997484
 1.009220
 1.020955
 1.032690
 1.044425
 1.056160
 1.067895
 1.079630
 1.091365
 1.103100
 1.114835
 1.126570
 1.138306
 1.150041
 1.161776
 0.000000
 0.011853
 0.023706
 0.035559
 0.047412
 0.059265
 0.071118
 0.082971
 0.094824
 0.106677
 0.118531
 0.130384
 0.142237
 0.154090
 0.165943
 0.177796
 0.189649
 0.201502
 0.213355
 0.225208
 0.237061
 0.248914
 0.260767
 0.272620
 0.284473
 0.296326
 0.308179
 0.320032
 0.331886
 0.343739
 0.355592
 0.367445
 0.379298
 0.391151
 0.403004
 0.414857
 0.426710
 0.438563
 0.450416
 0.462269
 0.474122
 0.485975
 0.497828
 0.509681
 0.521534
 0.533387
 0.545240
 0.557094
 0.568947
 0.580800
 0.592653
 0.604506
 0.616359
 0.628212
 0.640065
 0.651918
 0.663771
 0.675624
 0.687477
 0.699330
 0.711183
 0.723036
 0.734889
 0.746742
 0.758595
 0.770448
 0.782301
 0.794155
 0.806008
 0.817861
 0.829714
 0.841567
 0.853420
 0.865273
 0.877126
 0.888979
 0.900832
 0.912685
 0.924538
 0.936391
 0.948244
 0.960097
 0.971950
 0.983803
 0.995656
 1.007509
 1.019362
 1.031215
 1.043068
 1.054921
 1.066774
 1.078628
 1.090481
 1.102334
 1.114187
 1.126040
 1.137893
 1.149746
 1.161599
 1.173452
 0.000000
 0.011972
 0.023944
 0.035917
 0.047889
 0.059861
 0.071833
 0.083805
 0.095777
 0.107750
 0.119722
 0.131694
 0.143666
 0.155638
 0.167611
 0.179583
 0.191555
 0.203527
 0.215499
 0.227471
 0.239444
 0.251416
 0.263388
 0.275360
 0.287332
 0.299304
 0.311277
 0.323249
 0.335221
 0.347193
 0.359165
 0.371138
 0.383110
 0.395082
 0.407054
 0.419026
 0.430998
 0.442971
 0.454943
 0.466915
 0.478887
 0.490859
 0.502832
 0.514804
 0.526776
 0.538748
 0.550720
 0.562692
 0.574665
 0.586637
 0.598609
 0.610581
 0.622553
 0.634525
 0.646498
 0.658470
 0.670442
 0.682414
 0.694386
 0.706359
 0.718331
 0.730303
 0.742275
 0.754247
 0.766219
 0.778192
 0.790164
 0.802136
 0.814108
 0.826080
 0.838052
 0.850025
 0.861997
 0.873969
 0.885941
 0.897913
 0.909885
 0.921858
 0.933830
 0.945802
 0.957774
 0.969746
 0.981718
 0.993691
 1.005663
 1.017635
 1.029607
 1.041579
 1.053551
 1.065524
 1.077496
 1.089468
 1.101440
 1.113412
 1.125384
 1.137357
 1.149329
 1.161301
 1.173273
 1.185245
 0.000000
 0.012093
 0.024185
 0.036278
 0.048370
 0.060463
 0.072555
 0.084648
 0.096740
 0.108833
 0.120925
 0.133018
 0.145110
 0.157203
 0.169295
 0.181388
 0.193480
 0.205573
 0.217665
 0.229758
 0.241850
 0.253943
 0.266035
 0.278128
 0.290220
 0.302313
 0.314405
 0.326498
 0.338590
 0.350683
 0.362775
 0.374868
 0.386960
 0.399053
 0.411145
 0.423238
 0.435330
 0.447423
 0.459515
 0.471608
 0.483700
 0.495793
 0.507885
 0.519978
 0.532070
 0.544163
 0.556255
 0.568348
 0.580440
 0.592533
 0.604625
 0.616718
 0.628810
 0.640903
 0.652995
 0.665088
 0.677180
 0.689273
 0.701365
 0.713458
 0.725550
 0.737643
 0.749735
 0.761828
 0.773920
 0.786013
 0.798105
 0.810198
 0.822290
 0.834383
 0.846475
 0.858567
 0.870660
 0.882752
 0.894845
 0.906937
 0.919030
 0.931122
 0.943215
 0.955307
 0.967400
 0.979492
 0.991585
 1.003677
 1.015770
 1.027862
 1.039955
 1.052047
 1.064140
 1.076232
 1.088325
 1.100417
 1.112510
 1.124602