# vtk DataFile Version 2.0 
Grid
ASCII
DATASET STRUCTURED_GRID
DIMENSIONS 200 200 1
POINTS 40000 float
0.000000 0.000000 0.000000
0.005025 0.000000 0.000000
0.010050 0.000000 0.000000
0.015075 0.000000 0.000000
0.020101 0.000000 0.000000
0.025126 0.000000 0.000000
0.030151 0.000000 0.000000
0.035176 0.000000 0.000000
0.040201 0.000000 0.000000
0.045226 0.000000 0.000000
0.050251 0.000000 0.000000
0.055276 0.000000 0.000000
0.060302 0.000000 0.000000
0.065327 0.000000 0.000000
0.070352 0.000000 0.000000
0.075377 0.000000 0.000000
0.080402 0.000000 0.000000
0.085427 0.000000 0.000000
0.090452 0.000000 0.000000
0.095477 0.000000 0.000000
0.100503 0.000000 0.000000
0.105528 0.000000 0.000000
0.110553 0.000000 0.000000
0.115578 0.000000 0.000000
0.120603 0.000000 0.000000
0.125628 0.000000 0.000000
0.130653 0.000000 0.000000
0.135678 0.000000 0.000000
0.140704 0.000000 0.000000
0.145729 0.000000 0.000000
0.150754 0.000000 0.000000
0.155779 0.000000 0.000000
0.160804 0.000000 0.000000
0.165829 0.000000 0.000000
0.170854 0.000000 0.000000
0.175879 0.000000 0.000000
0.180905 0.000000 0.000000
0.185930 0.000000 0.000000
0.190955 0.000000 0.000000
0.195980 0.000000 0.000000
0.201005 0.000000 0.000000
0.206030 0.000000 0.000000
0.211055 0.000000 0.000000
0.216080 0.000000 0.000000
0.221106 0.000000 0.000000
0.226131 0.000000 0.000000
0.231156 0.000000 0.000000
0.236181 0.000000 0.000000
0.241206 0.000000 0.000000
0.246231 0.000000 0.000000
0.251256 0.000000 0.000000
0.256281 0.000000 0.000000
0.261307 0.000000 0.000000
0.266332 0.000000 0.000000
0.271357 0.000000 0.000000
0.276382 0.000000 0.000000
0.281407 0.000000 0.000000
0.286432 0.000000 0.000000
0.291457 0.000000 0.000000
0.296482 0.000000 0.000000
0.301508 0.000000 0.000000
0.306533 0.000000 0.000000
0.311558 0.000000 0.000000
0.316583 0.000000 0.000000
0.321608 0.000000 0.000000
0.326633 0.000000 0.000000
0.331658 0.000000 0.000000
0.336683 0.000000 0.000000
0.341709 0.000000 0.000000
0.346734 0.000000 0.000000
0.351759 0.000000 0.000000
0.356784 0.000000 0.000000
0.361809 0.000000 0.000000
0.366834 0.000000 0.000000
0.371859 0.000000 0.000000
0.376884 0.000000 0.000000
0.381910 0.000000 0.000000
0.386935 0.000000 0.000000
0.391960 0.000000 0.000000
0.396985 0.000000 0.000000
0.402010 0.000000 0.000000
0.407035 0.000000 0.000000
0.412060 0.000000 0.000000
0.417085 0.000000 0.000000
0.422111 0.000000 0.000000
0.427136 0.000000 0.000000
0.432161 0.000000 0.000000
0.437186 0.000000 0.000000
0.442211 0.000000 0.000000
0.447236 0.000000 0.000000
0.452261 0.000000 0.000000
0.457286 0.000000 0.000000
0.462312 0.000000 0.000000
0.467337 0.000000 0.000000
0.472362 0.000000 0.000000
0.477387 0.000000 0.000000
0.482412 0.000000 0.000000
0.487437 0.000000 0.000000
0.492462 0.000000 0.000000
0.497487 0.000000 0.000000
0.502513 0.000000 0.000000
0.507538 0.000000 0.000000
0.512563 0.000000 0.000000
0.517588 0.000000 0.000000
0.522613 0.000000 0.000000
0.527638 0.000000 0.000000
0.532663 0.000000 0.000000
0.537688 0.000000 0.000000
0.542714 0.000000 0.000000
0.547739 0.000000 0.000000
0.552764 0.000000 0.000000
0.557789 0.000000 0.000000
0.562814 0.000000 0.000000
0.567839 0.000000 0.000000
0.572864 0.000000 0.000000
0.577889 0.000000 0.000000
0.582915 0.000000 0.000000
0.587940 0.000000 0.000000
0.592965 0.000000 0.000000
0.597990 0.000000 0.000000
0.603015 0.000000 0.000000
0.608040 0.000000 0.000000
0.613065 0.000000 0.000000
0.618090 0.000000 0.000000
0.623116 0.000000 0.000000
0.628141 0.000000 0.000000
0.633166 0.000000 0.000000
0.638191 0.000000 0.000000
0.643216 0.000000 0.000000
0.648241 0.000000 0.000000
0.653266 0.000000 0.000000
0.658291 0.000000 0.000000
0.663317 0.000000 0.000000
0.668342 0.000000 0.000000
0.673367 0.000000 0.000000
0.678392 0.000000 0.000000
0.683417 0.000000 0.000000
0.688442 0.000000 0.000000
0.693467 0.000000 0.000000
0.698492 0.000000 0.000000
0.703518 0.000000 0.000000
0.708543 0.000000 0.000000
0.713568 0.000000 0.000000
0.718593 0.000000 0.000000
0.723618 0.000000 0.000000
0.728643 0.000000 0.000000
0.733668 0.000000 0.000000
0.738693 0.000000 0.000000
0.743719 0.000000 0.000000
0.748744 0.000000 0.000000
0.753769 0.000000 0.000000
0.758794 0.000000 0.000000
0.763819 0.000000 0.000000
0.768844 0.000000 0.000000
0.773869 0.000000 0.000000
0.778894 0.000000 0.000000
0.783920 0.000000 0.000000
0.788945 0.000000 0.000000
0.793970 0.000000 0.000000
0.798995 0.000000 0.000000
0.804020 0.000000 0.000000
0.809045 0.000000 0.000000
0.814070 0.000000 0.000000
0.819095 0.000000 0.000000
0.824121 0.000000 0.000000
0.829146 0.000000 0.000000
0.834171 0.000000 0.000000
0.839196 0.000000 0.000000
0.844221 0.000000 0.000000
0.849246 0.000000 0.000000
0.854271 0.000000 0.000000
0.859296 0.000000 0.000000
0.864322 0.000000 0.000000
0.869347 0.000000 0.000000
0.874372 0.000000 0.000000
0.879397 0.000000 0.000000
0.884422 0.000000 0.000000
0.889447 0.000000 0.000000
0.894472 0.000000 0.000000
0.899497 0.000000 0.000000
0.904523 0.000000 0.000000
0.909548 0.000000 0.000000
0.914573 0.000000 0.000000
0.919598 0.000000 0.000000
0.924623 0.000000 0.000000
0.929648 0.000000 0.000000
0.934673 0.000000 0.000000
0.939698 0.000000 0.000000
0.944724 0.000000 0.000000
0.949749 0.000000 0.000000
0.954774 0.000000 0.000000
0.959799 0.000000 0.000000
0.964824 0.000000 0.000000
0.969849 0.000000 0.000000
0.974874 0.000000 0.000000
0.979899 0.000000 0.000000
0.984925 0.000000 0.000000
0.989950 0.000000 0.000000
0.994975 0.000000 0.000000
1.000000 0.000000 0.000000
0.000000 0.005025 0.000000
0.005025 0.005025 0.000000
0.010050 0.005025 0.000000
0.015075 0.005025 0.000000
0.020101 0.005025 0.000000
0.025126 0.005025 0.000000
0.030151 0.005025 0.000000
0.035176 0.005025 0.000000
0.040201 0.005025 0.000000
0.045226 0.005025 0.000000
0.050251 0.005025 0.000000
0.055276 0.005025 0.000000
0.060302 0.005025 0.000000
0.065327 0.005025 0.000000
0.070352 0.005025 0.000000
0.075377 0.005025 0.000000
0.080402 0.005025 0.000000
0.085427 0.005025 0.000000
0.090452 0.005025 0.000000
0.095477 0.005025 0.000000
0.100503 0.005025 0.000000
0.105528 0.005025 0.000000
0.110553 0.005025 0.000000
0.115578 0.005025 0.000000
0.120603 0.005025 0.000000
0.125628 0.005025 0.000000
0.130653 0.005025 0.000000
0.135678 0.005025 0.000000
0.140704 0.005025 0.000000
0.145729 0.005025 0.000000
0.150754 0.005025 0.000000
0.155779 0.005025 0.000000
0.160804 0.005025 0.000000
0.165829 0.005025 0.000000
0.170854 0.005025 0.000000
0.175879 0.005025 0.000000
0.180905 0.005025 0.000000
0.185930 0.005025 0.000000
0.190955 0.005025 0.000000
0.195980 0.005025 0.000000
0.201005 0.005025 0.000000
0.206030 0.005025 0.000000
0.211055 0.005025 0.000000
0.216080 0.005025 0.000000
0.221106 0.005025 0.000000
0.226131 0.005025 0.000000
0.231156 0.005025 0.000000
0.236181 0.005025 0.000000
0.241206 0.005025 0.000000
0.246231 0.005025 0.000000
0.251256 0.005025 0.000000
0.256281 0.005025 0.000000
0.261307 0.005025 0.000000
0.266332 0.005025 0.000000
0.271357 0.005025 0.000000
0.276382 0.005025 0.000000
0.281407 0.005025 0.000000
0.286432 0.005025 0.000000
0.291457 0.005025 0.000000
0.296482 0.005025 0.000000
0.301508 0.005025 0.000000
0.306533 0.005025 0.000000
0.311558 0.005025 0.000000
0.316583 0.005025 0.000000
0.321608 0.005025 0.000000
0.326633 0.005025 0.000000
0.331658 0.005025 0.000000
0.336683 0.005025 0.000000
0.341709 0.005025 0.000000
0.346734 0.005025 0.000000
0.351759 0.005025 0.000000
0.356784 0.005025 0.000000
0.361809 0.005025 0.000000
0.366834 0.005025 0.000000
0.371859 0.005025 0.000000
0.376884 0.005025 0.000000
0.381910 0.005025 0.000000
0.386935 0.005025 0.000000
0.391960 0.005025 0.000000
0.396985 0.005025 0.000000
0.402010 0.005025 0.000000
0.407035 0.005025 0.000000
0.412060 0.005025 0.000000
0.417085 0.005025 0.000000
0.422111 0.005025 0.000000
0.427136 0.005025 0.000000
0.432161 0.005025 0.000000
0.437186 0.005025 0.000000
0.442211 0.005025 0.000000
0.447236 0.005025 0.000000
0.452261 0.005025 0.000000
0.457286 0.005025 0.000000
0.462312 0.005025 0.000000
0.467337 0.005025 0.000000
0.472362 0.005025 0.000000
0.477387 0.005025 0.000000
0.482412 0.005025 0.000000
0.487437 0.005025 0.000000
0.492462 0.005025 0.000000
0.497487 0.005025 0.000000
0.502513 0.005025 0.000000
0.507538 0.005025 0.000000
0.512563 0.005025 0.000000
0.517588 0.005025 0.000000
0.522613 0.005025 0.000000
0.527638 0.005025 0.000000
0.532663 0.005025 0.000000
0.537688 0.005025 0.000000
0.542714 0.005025 0.000000
0.547739 0.005025 0.000000
0.552764 0.005025 0.000000
0.557789 0.005025 0.000000
0.562814 0.005025 0.000000
0.567839 0.005025 0.000000
0.572864 0.005025 0.000000
0.577889 0.005025 0.000000
0.582915 0.005025 0.000000
0.587940 0.005025 0.000000
0.592965 0.005025 0.000000
0.597990 0.005025 0.000000
0.603015 0.005025 0.000000
0.608040 0.005025 0.000000
0.613065 0.005025 0.000000
0.618090 0.005025 0.000000
0.623116 0.005025 0.000000
0.628141 0.005025 0.000000
0.633166 0.005025 0.000000
0.638191 0.005025 0.000000
0.643216 0.005025 0.000000
0.648241 0.005025 0.000000
0.653266 0.005025 0.000000
0.658291 0.005025 0.000000
0.663317 0.005025 0.000000
0.668342 0.005025 0.000000
0.673367 0.005025 0.000000
0.678392 0.005025 0.000000
0.683417 0.005025 0.000000
0.688442 0.005025 0.000000
0.693467 0.005025 0.000000
0.698492 0.005025 0.000000
0.703518 0.005025 0.000000
0.708543 0.005025 0.000000
0.713568 0.005025 0.000000
0.718593 0.005025 0.000000
0.723618 0.005025 0.000000
0.728643 0.005025 0.000000
0.733668 0.005025 0.000000
0.738693 0.005025 0.000000
0.743719 0.005025 0.000000
0.748744 0.005025 0.000000
0.753769 0.005025 0.000000
0.758794 0.005025 0.000000
0.763819 0.005025 0.000000
0.768844 0.005025 0.000000
0.773869 0.005025 0.000000
0.778894 0.005025 0.000000
0.783920 0.005025 0.000000
0.788945 0.005025 0.000000
0.793970 0.005025 0.000000
0.798995 0.005025 0.000000
0.804020 0.005025 0.000000
0.809045 0.005025 0.000000
0.814070 0.005025 0.000000
0.819095 0.005025 0.000000
0.824121 0.005025 0.000000
0.829146 0.005025 0.000000
[...]
POINT_DATA 40000
SCALARS P float 1
LOOKUP_TABLE default
 0.000000
 0.005000
 0.010000
 0.015000
 0.020000
 0.025000
 0.030000
 0.035000
 0.040000
 0.045000
 0.050000
 0.055000
 0.060000
 0.065000
 0.070000
 0.075000
 0.080000
 0.085000
 0.090000
 0.095000
 0.100000
 0.105000
 0.110000
 0.115000
 0.120000
 0.125000
 0.130000
 0.135000
 0.140000
 0.145000
 0.150000
 0.155000
 0.160000
 0.165000
 0.170000
 0.175000
 0.180000
 0.185000
 0.190000
 0.195000
 0.200000
 0.205000
 0.210000
 0.215000
 0.220000
 0.225000
 0.230000
 0.235000
 0.240000
 0.245000
 0.250000
 0.255000
 0.260000
 0.265000
 0.270000
 0.275000
 0.280000
 0.285000
 0.290000
 0.295000
 0.300000
 0.305000
 0.310000
 0.315000
 0.320000
 0.325000
 0.330000
 0.335000
 0.340000
 0.345000
 0.350000
 0.355000
 0.360000
 0.365000
 0.370000
 0.375000
 0.380000
 0.385000
 0.390000
 0.395000
 0.400000
 0.405000
 0.410000
 0.415000
 0.420000
 0.425000
 0.430000
 0.435000
 0.440000
 0.445000
 0.450000
 0.455000
 0.460000
 0.465000
 0.470000
 0.475000
 0.480000
 0.485000
 0.490000
 0.495000
 0.500000
 0.505000
 0.510000
 0.515000
 0.520000
 0.525000
 0.530000
 0.535000
 0.540000
 0.545000
 0.550000
 0.555000
 0.560000
 0.565000
 0.570000
 0.575000
 0.580000
 0.585000
 0.590000
 0.595000
 0.600000
 0.605000
 0.610000
 0.615000
 0.620000
 0.625000
 0.630000
 0.635000
 0.640000
 0.645000
 0.650000
 0.655000
 0.660000
 0.665000
 0.670000
 0.675000
 0.680000
 0.685000
 0.690000
 0.695000
 0.700000
 0.705000
 0.710000
 0.715000
 0.720000
 0.725000
 0.730000
 0.735000
 0.740000
 0.745000
 0.750000
 0.755000
 0.760000
 0.765000
 0.770000
 0.775000
 0.780000
 0.785000
 0.790000
 0.795000
 0.800000
 0.805000
 0.810000
 0.815000
 0.820000
 0.825000
 0.830000
 0.835000
 0.840000
 0.845000
 0.850000
 0.855000
 0.860000
 0.865000
 0.870000
 0.875000
 0.880000
 0.885000
 0.890000
 0.895000
 0.900000
 0.905000
 0.910000
 0.915000
 0.920000
 0.925000
 0.930000
 0.935000
 0.940000
 0.945000
 0.950000
 0.955000
 0.960000
 0.965000
 0.970000
 0.975000
 0.980000
 0.985000
 0.990000
 0.995000
 0.000000
 0.005025
 0.010050
 0.015075
 0.020100
 0.025125
 0.030150
 0.035175
 0.040201
 0.045226
 0.050251
 0.055276
 0.060301
 0.065326
 0.070351
 0.075376
 0.080401
 0.085426
 0.090451
 0.095476
 0.100501
 0.105526
 0.110551
 0.115576
 0.120602
 0.125627
 0.130652
 0.135677
 0.140702
 0.145727
 0.150752
 0.155777
 0.160802
 0.165827
 0.170852
 0.175877
 0.180902
 0.185927
 0.190952
 0.195977
 0.201003
 0.206028
 0.211053
 0.216078
 0.221103
 0.226128
 0.231153
 0.236178
 0.241203
 0.246228
 0.251253
 0.256278
 0.261303
 0.266328
 0.271353
 0.276378
 0.281404
 0.286429
 0.291454
 0.296479
 0.301504
 0.306529
 0.311554
 0.316579
 0.321604
 0.326629
 0.331654
 0.336679
 0.341704
 0.346729
 0.351754
 0.356779
 0.361805
 0.366830
 0.371855
 0.376880
 0.381905
 0.386930
 0.391955
 0.396980
 0.402005
 0.407030
 0.412055
 0.417080
 0.422105
 0.427130
 0.432155
 0.437180
 0.442206
 0.447231
 0.452256
 0.457281
 0.462306
 0.467331
 0.472356
 0.477381
 0.482406
 0.487431
 0.492456
 0.497481
 0.502506
 0.507531
 0.512556
 0.517581
 0.522607
 0.527632
 0.532657
 0.537682
 0.542707
 0.547732
 0.552757
 0.557782
 0.562807
 0.567832
 0.572857
 0.577882
 0.582907
 0.587932
 0.592957
 0.597982
 0.603008
 0.608033
 0.613058
 0.618083
 0.623108
 0.628133
 0.633158
 0.638183
 0.643208
 0.648233
 0.653258
 0.658283
 0.663308
 0.668333
 0.673358
 0.678383
 0.683409
 0.688434
 0.693459
 0.698484
 0.703509
 0.708534
 0.713559
 0.718584
 0.723609
 0.728634
 0.733659
 0.738684
 0.743709
 0.748734
 0.753759
 0.758784
 0.763810
 0.768835
 0.773860
 0.778885
 0.783910
 0.788935
 0.793960
 0.798985
 0.804010
 0.809035
 0.814060
 0.819085
 0.824110
 0.829135
 0.834160
 0.839185
 0.844211
 0.849236
 0.854261
 0.859286
 0.864311
 0.869336
 0.874361
 0.879386
 0.884411
 0.889436
 0.894461
 0.899486
 0.904511
 0.909536
 0.914561
 0.919586
 0.924612
 0.929637
 0.934662
 0.939687
 0.944712
 0.949737
 0.954762
 0.959787
 0.964812
 0.969837
 0.974862
 0.979887
 0.984912
 0.989937
 0.994962
 0.999988
 0.000000
 0.005050
 0.010101
 0.015151
 0.020201
 0.025251
 0.030302
 0.035352
 0.040402
 0.045452
 0.050503
 0.055553
 0.060603
 0.065653
 0.070704
 0.075754
 0.080804
 0.085854
 0.090905
 0.095955
 0.101005
 0.106055
 0.111106
 0.116156
 0.121206
 0.126256
 0.131307
 0.136357
 0.141407
 0.146457
 0.151508
 0.156558
 0.161608
 0.166658
 0.171709
 0.176759
 0.181809
 0.186859
 0.191910
 0.196960
 0.202010
 0.207060
 0.212111
 0.217161
 0.222211
 0.227261
 0.232312
 0.237362
 0.242412
 0.247462
 0.252513
 0.257563
 0.262613
 0.267663
 0.272714
 0.277764
 0.282814
 0.287864
 0.292915
 0.297965
 0.303015
 0.308065
 0.313116
 0.318166
 0.323216
 0.328266
 0.333317
 0.338367
 0.343417
 0.348467
 0.353518
 0.358568
 0.363618
 0.368668
 0.373719
 0.378769
 0.383819
 0.388869
 0.393920
 0.398970
 0.404020
 0.409070
 0.414121
 0.419171
 0.424221
 0.429271
 0.434322
 0.439372
 0.444422
 0.449472
 0.454523
 0.459573
 0.464623
 0.469673
 0.474724
 0.479774
 0.484824
 0.489874
 0.494925
 0.499975
 0.505025
 0.510075
 0.515126
 0.520176
 0.525226
 0.530276
 0.535327
 0.540377
 0.545427
 0.550477
 0.555528
 0.560578
 0.565628
 0.570678
 0.575729
 0.580779
 0.585829
 0.590879
 0.595930
 0.600980
 0.606030
 0.611080
 0.616131
 0.621181
 0.626231
 0.631281
 0.636332
 0.641382
 0.646432
 0.651482
 0.656533
 0.661583
 0.666633
 0.671683
 0.676734
 0.681784
 0.686834
 0.691884
 0.696935
 0.701985
 0.707035
 0.712085
 0.717136
 0.722186
 0.727236
 0.732286
 0.737337
 0.742387
 0.747437
 0.752487
 0.757538
 0.762588
 0.767638
 0.772688
 0.777739
 0.782789
 0.787839
 0.792889
 0.797940
 0.802990
 0.808040
 0.813090
 0.818141
 0.823191
 0.828241
 0.833291
 0.838342
 0.843392
 0.848442
 0.853492
 0.858543
 0.863593
 0.868643
 0.873693
 0.878744
 0.883794
 0.888844
 0.893894
 0.898945
 0.903995
 0.909045
 0.914095
 0.919146
 0.924196
 0.929246
 0.934296
 0.939347
 0.944397
 0.949447
 0.954497
 0.959548
 0.964598
 0.969648
 0.974698
 0.979749
 0.984799
 0.989849
 0.994899
 0.999950
 1.005000
 0.000000
 0.005076
 0.010151
 0.015227
 0.020302
 0.025378
 0.030453
 0.035529
 0.040605
 0.045680
 0.050756
 0.055831
 0.060907
 0.065982
 0.071058
 0.076133
 0.081209
 0.086285
 0.091360
 0.096436
 0.101511
 0.106587
 0.111662
 0.116738
 0.121814
 0.126889
 0.131965
 0.137040
 0.142116
 0.147191
 0.152267
 0.157343
 0.162418
 0.167494
 0.172569
 0.177645
 0.182720
 0.187796
 0.192871
 0.197947
 0.203023
 0.208098
 0.213174
 0.218249
 0.223325
 0.228400
 0.233476
 0.238552
 0.243627
 0.248703
 0.253778
 0.258854
 0.263929
 0.269005
 0.274081
 0.279156
 0.284232
 0.289307
 0.294383
 0.299458
 0.304534
 0.309609
 0.314685
 0.319761
 0.324836
 0.329912
 0.334987
 0.340063
 0.345138
 0.350214
 0.355290
 0.360365
 0.365441
 0.370516
 0.375592
 0.380667
 0.385743
 0.390819
 0.395894
 0.400970
 0.406045
 0.411121
 0.416196
 0.421272
 0.426347
 0.431423
 0.436499
 0.441574
 0.446650
 0.451725
 0.456801
 0.461876
 0.466952
 0.472028
 0.477103
 0.482179
 0.487254
 0.492330
 0.497405
 0.502481
 0.507557
 0.512632
 0.517708
 0.522783
 0.527859
 0.532934
 0.538010
 0.543085
 0.548161
 0.553237
 0.558312
 0.563388
 0.568463
 0.573539
 0.578614
 0.583690
 0.588766
 0.593841
 0.598917
 0.603992
 0.609068
 0.614143
 0.619219
 0.624295
 0.629370
 0.634446
 0.639521
 0.644597
 0.649672
 0.654748
 0.659823
 0.664899
 0.669975
 0.675050
 0.680126
 0.685201
 0.690277
 0.695352
 0.700428
 0.705504
 0.710579
 0.715655
 0.720730
 0.725806
 0.730881
 0.735957
 0.741033
 0.746108
 0.751184
 0.756259
 0.761335
 0.766410
 0.771486
 0.776562
 0.781637
 0.786713
 0.791788
 0.796864
 0.801939
 0.807015
 0.812090
 0.817166
 0.822242
 0.827317
 0.832393
 0.837468
 0.842544
 0.847619
 0.852695
 0.857771
 0.862846
 0.867922
 0.872997
 0.878073
 0.883148
 0.888224
 0.893300
 0.898375
 0.903451
 0.908526
 0.913602
 0.918677
 0.923753
 0.928828
 0.933904
 0.938980
 0.944055
 0.949131
 0.954206
 0.959282
 0.964357
 0.969433
 0.974509
 0.979584
 0.984660
 0.989735
 0.994811
 0.999886
 1.004962
 1.010038
 0.000000
 0.005101
 0.010202
 0.015303
 0.020404
 0.025505
 0.030606
 0.035707
 0.040808
 0.045909
 0.051010
 0.056111
 0.061212
 0.066313
 0.071414
 0.076515
 0.081616
 0.086717
 0.091818
 0.096919
 0.102020
 0.107121
 0.112222
 0.117323
 0.122424
 0.127525
 0.132626
 0.137727
 0.142828
 0.147929
 0.153030
 0.158131
 0.163232
 0.168333
 0.173434
 0.178535
 0.183636
 0.188737
 0.193838
 0.198939
 0.204040
 0.209141
 0.214242
 0.219343
 0.224444
 0.229545
 0.234646
 0.239747
 0.244848
 0.249949
 0.255050
 0.260151
 0.265252
 0.270353
 0.275454
 0.280555
 0.285656
 0.290757
 0.295858
 0.300959
 0.306060
 0.311161
 0.316262
 0.321363
 0.326464
 0.331565
 0.336666
 0.341767
 0.346868
 0.351969
 0.357070
 0.362171
 0.367272
 0.372373
 0.377475
 0.382576
 0.387677
 0.392778
 0.397879
 0.402980
 0.408081
 0.413182
 0.418283
 0.423384
 0.428485
 0.433586
 0.438687
 0.443788
 0.448889
 0.453990
 0.459091
 0.464192
 0.469293
 0.474394
 0.479495
 0.484596
 0.489697
 0.494798
 0.499899
 0.505000
 0.510101
 0.515202
 0.520303
 0.525404
 0.530505
 0.535606
 0.540707
 0.545808
 0.550909
 0.556010
 0.561111
 0.566212
 0.571313
 0.576414
 0.581515
 0.586616
 0.591717
 0.596818
 0.601919
 0.607020
 0.612121
 0.617222
 0.622323
 0.627424
 0.632525
 0.637626
 0.642727
 0.647828
 0.652929
 0.658030
 0.663131
 0.668232
 0.673333
 0.678434
 0.683535
 0.688636
 0.693737
 0.698838
 0.703939
 0.709040
 0.714141
 0.719242
 0.724343
 0.729444
 0.734545
 0.739646
 0.744747
 0.749848
 0.754949
 0.760050
 0.765151
 0.770252
 0.775353
 0.780454
 0.785555
 0.790656
 0.795757
 0.800858
 0.805959
 0.811060
 0.816161
 0.821262
 0.826363
 0.831464
 0.836565
 0.841666
 0.846767
 0.851868
 0.856969
 0.862070
 0.867171
 0.872272
 0.877373
 0.882474
 0.887575
 0.892676
 0.897777
 0.902878
 0.907979
 0.913080
 0.918181
 0.923282
 0.928383
 0.933484
 0.938585
 0.943686
 0.948787
 0.953888
 0.958989
 0.964090
 0.969191
 0.974292
 0.979393
 0.984494
 0.989595
 0.994696
 0.999797
 1.004898
 1.009999
 1.015100
 0.000000
 0.005127
 0.010253
 0.015380
 0.020506
 0.025633
 0.030759
 0.035886
 0.041013
 0.046139
 0.051266
 0.056392
 0.061519
 0.066645
 0.071772
 0.076899
 0.082025
 0.087152
 0.092278
 0.097405
 0.102532
 0.107658
 0.112785
 0.117911
 0.123038
 0.128164
 0.133291
 0.138418
 0.143544
 0.148671
 0.153797
 0.158924
 0.164050
 0.169177
 0.174304
 0.179430
 0.184557
 0.189683
 0.194810
 0.199936
 0.205063
 0.210190
 0.215316
 0.220443
 0.225569
 0.230696
 0.235822
 0.240949
 0.246076
 0.251202
 0.256329
 0.261455
 0.266582
 0.271709
 0.276835
 0.281962
 0.287088
 0.292215
 0.297341
 0.302468
 0.307595
 0.312721
 0.317848
 0.322974
 0.328101
 0.333227
 0.338354
 0.343481
 0.348607
 0.353734
 0.358860
 0.363987
 0.369113
 0.374240
 0.379367
 0.384493
 0.389620
 0.394746
 0.399873
 0.404999
 0.410126
 0.415253
 0.420379
 0.425506
 0.430632
 0.435759
 0.440886
 0.446012
 0.451139
 0.456265
 0.461392
 0.466518
 0.471645
 0.476772
 0.481898
 0.487025
 0.492151
 0.497278
 0.502404
 0.507531
 0.512658
 0.517784
 0.522911
 0.528037
 0.533164
 0.538290
 0.543417
 0.548544
 0.553670
 0.558797
 0.563923
 0.569050
 0.574176
 0.579303
 0.584430
 0.589556
 0.594683
 0.599809
 0.604936
 0.610063
 0.615189
 0.620316
 0.625442
 0.630569
 0.635695
 0.640822
 0.645949
 0.651075
 0.656202
 0.661328
 0.666455
 0.671581
 0.676708
 0.681835
 0.686961
 0.692088
 0.697214
 0.702341
 0.707467
 0.712594
 0.717721
 0.722847
 0.727974
 0.733100
 0.738227
 0.743353
 0.748480
 0.753607
 0.758733
 0.763860
 0.768986
 0.774113
 0.779240
 0.784366
 0.789493
 0.794619
 0.799746
 0.804872
 0.809999
 0.815126
 0.820252
 0.825379
 0.830505
 0.835632
 0.840758
 0.845885
 0.851012
 0.856138
 0.861265
 0.866391
 0.871518
 0.876644
 0.881771
 0.886898
 0.892024
 0.897151
 0.902277
 0.907404
 0.912530
 0.917657
 0.922784
 0.927910
 0.933037
 0.938163
 0.943290
 0.948416
 0.953543
 0.958670
 0.963796
 0.968923
 0.974049
 0.979176
 0.984303
 0.989429
 0.994556
 0.999682
 1.004809
 1.009935
 1.015062
 1.020189
 0.000000
 0.005152
 0.010305
 0.015457
 0.020609
 0.025761
 0.030914
 0.036066
 0.041218
 0.046370
 0.051523
 0.056675
 0.061827
 0.066980
 0.072132
 0.077284
 0.082436
 0.087589
 0.092741
 0.097893
 0.103045
 0.108198
 0.113350
 0.118502
 0.123655
 0.128807
 0.133959
 0.139111
 0.144264
 0.149416
 0.154568
 0.159720
 0.164873
 0.170025
 0.175177
 0.180330
 0.185482
 0.190634
 0.195786
 0.200939
 0.206091
 0.211243
 0.216395
 0.221548
 0.226700
 0.231852
 0.237005
 0.242157
 0.247309
 0.252461
 0.257614
 0.262766
 0.267918
 0.273070
 0.278223
 0.283375
 0.288527
 0.293680
 0.298832
 0.303984
 0.309136
 0.314289
 0.319441
 0.324593
 0.329745
 0.334898
 0.340050
 0.345202
 0.350355
 0.355507
 0.360659
 0.365811
 0.370964
 0.376116
 0.381268
 0.386420
 0.391573
 0.396725
 0.401877
 0.407030
 0.412182
 0.417334
 0.422486
 0.427639
 0.432791
 0.437943
 0.443095
 0.448248
 0.453400
 0.458552
 0.463705
 0.468857
 0.474009
 0.479161
 0.484314
 0.489466
 0.494618
 0.499770
 0.504923
 0.510075
 0.515227
 0.520380
 0.525532
 0.530684
 0.535836
 0.540989
 0.546141
 0.551293
 0.556445
 0.561598
 0.566750
 0.571902
 0.577055
 0.582207
 0.587359
 0.592511
 0.597664
 0.602816
 0.607968
 0.613120
 0.618273
 0.623425
 0.628577
 0.633730
 0.638882
 0.644034
 0.649186
 0.654339
 0.659491
 0.664643
 0.669795
 0.674948
 0.680100
 0.685252
 0.690405
 0.695557
 0.700709
 0.705861
 0.711014
 0.716166
 0.721318
 0.726470
 0.731623
 0.736775
 0.741927
 0.747080
 0.752232
 0.757384
 0.762536
 0.767689
 0.772841
 0.777993
 0.783145
 0.788298
 0.793450
 0.798602
 0.803755
 0.808907
 0.814059
 0.819211
 0.824364
 0.829516
 0.834668
 0.839820
 0.844973
 0.850125
 0.855277
 0.860430
 0.865582
 0.870734
 0.875886
 0.881039
 0.886191
 0.891343
 0.896495
 0.901648
 0.906800
 0.911952
 0.917105
 0.922257
 0.927409
 0.932561
 0.937714
 0.942866
 0.948018
 0.953170
 0.958323
 0.963475
 0.968627
 0.973780
 0.978932
 0.984084
 0.989236
 0.994389
 0.999541
 1.004693
 1.009845
 1.014998
 1.020150
 1.025302
 0.000000
 0.005178
 0.010356
 0.015534
 0.020712
 0.025890
 0.031069
 0.036247
 0.041425
 0.046603
 0.051781
 0.056959
 0.062137
 0.067315
 0.072493
 0.077671
 0.082850
 0.088028
 0.093206
 0.098384
 0.103562
 0.108740
 0.113918
 0.119096
 0.124274
 0.129452
 0.134631
 0.139809
 0.144987
 0.150165
 0.155343
 0.160521
 0.165699
 0.170877
 0.176055
 0.181233
 0.186412
 0.191590
 0.196768
 0.201946
 0.207124
 0.212302
 0.217480
 0.222658
 0.227836
 0.233014
 0.238193
 0.243371
 0.248549
 0.253727
 0.258905
 0.264083
 0.269261
 0.274439
 0.279617
 0.284795
 0.289974
 0.295152
 0.300330
 0.305508
 0.310686
 0.315864
 0.321042
 0.326220
 0.331398
 0.336576
 0.341755
 0.346933
 0.352111
 0.357289
 0.362467
 0.367645
 0.372823
 0.378001
 0.383179
 0.388357
 0.393536
 0.398714
 0.403892
 0.409070
 0.414248
 0.419426
 0.424604
 0.429782
 0.434960
 0.440138
 0.445316
 0.450495
 0.455673
 0.460851
 0.466029
 0.471207
 0.476385
 0.481563
 0.486741
 0.491919
 0.497097
 0.502276
 0.507454
 0.512632
 0.517810
 0.522988
 0.528166
 0.533344
 0.538522
 0.543700
 0.548878
 0.554057
 0.559235
 0.564413
 0.569591
 0.574769
 0.579947
 0.585125
 0.590303
 0.595481
 0.600659
 0.605838
 0.611016
 0.616194
 0.621372
 0.626550
 0.631728
 0.636906
 0.642084
 0.647262
 0.652440
 0.657619
 0.662797
 0.667975
 0.673153
 0.678331
 0.683509
 0.688687
 0.693865
 0.699043
 0.704221
 0.709400
 0.714578
 0.719756
 0.724934
 0.730112
 0.735290
 0.740468
 0.745646
 0.750824
 0.756002
 0.761181
 0.766359
 0.771537
 0.776715
 0.781893
 0.787071
 0.792249
 0.797427
 0.802605
 0.807783
 0.812961
 0.818140
 0.823318
 0.828496
 0.833674
 0.838852
 0.844030
 0.849208
 0.854386
 0.859564
 0.864742
 0.869921
 0.875099
 0.880277
 0.885455
 0.890633
 0.895811
 0.900989
 0.906167
 0.911345
 0.916523
 0.921702
 0.926880
 0.932058
 0.937236
 0.942414
 0.947592
 0.952770
 0.957948
 0.963126
 0.968304
 0.973483
 0.978661
 0.983839
 0.989017
 0.994195
 0.999373
 1.004551
 1.009729
 1.014907
 1.020085
 1.025264
 1.030442
 0.000000
 0.005204
 0.010408
 0.015612
 0.020816
 0.026020
 0.031224
 0.036428
 0.041632
 0.046836
 0.052041
 0.057245
 0.062449
 0.067653
 0.072857
 0.078061
 0.083265
 0.088469
 0.093673
 0.098877
 0.104081
 0.109285
 0.114489
 0.119693
 0.124897
 0.130101
 0.135305
 0.140509
 0.145714
 0.150918
 0.156122
 0.161326
 0.166530
 0.171734
 0.176938
 0.182142
 0.187346
 0.192550
 0.197754
 0.202958
 0.208162
 0.213366
 0.218570
 0.223774
 0.228978
 0.234182
 0.239386
 0.244591
 0.249795
 0.254999
 0.260203
 0.265407
 0.270611
 0.275815
 0.281019
 0.286223
 0.291427
 0.296631
 0.301835
 0.307039
 0.312243
 0.317447
 0.322651
 0.327855
 0.333059
 0.338264
 0.343468
 0.348672
 0.353876
 0.359080
 0.364284
 0.369488
 0.374692
 0.379896
 0.385100
 0.390304
 0.395508
 0.400712
 0.405916
 0.411120
 0.416324
 0.421528
 0.426732
 0.431936
 0.437141
 0.442345
 0.447549
 0.452753
 0.457957
 0.463161
 0.468365
 0.473569
 0.478773
 0.483977
 0.489181
 0.494385
 0.499589
 0.504793
 0.509997
 0.515201
 0.520405
 0.525609
 0.530814
 0.536018
 0.541222
 0.546426
 0.551630
 0.556834
 0.562038
 0.567242
 0.572446
 0.577650
 0.582854
 0.588058
 0.593262
 0.598466
 0.603670
 0.608874
 0.614078
 0.619282
 0.624486
 0.629691
 0.634895
 0.640099
 0.645303
 0.650507
 0.655711
 0.660915
 0.666119
 0.671323
 0.676527
 0.681731
 0.686935
 0.692139
 0.697343
 0.702547
 0.707751
 0.712955
 0.718159
 0.723364
 0.728568
 0.733772
 0.738976
 0.744180
 0.749384
 0.754588
 0.759792
 0.764996
 0.770200
 0.775404
 0.780608
 0.785812
 0.791016
 0.796220
 0.801424
 0.806628
 0.811832
 0.817036
 0.822241
 0.827445
 0.832649
 0.837853
 0.843057
 0.848261
 0.853465
 0.858669
 0.863873
 0.869077
 0.874281
 0.879485
 0.884689
 0.889893
 0.895097
 0.900301
 0.905505
 0.910709
 0.915913
 0.921118
 0.926322
 0.931526
 0.936730
 0.941934
 0.947138
 0.952342
 0.957546
 0.962750
 0.967954
 0.973158
 0.978362
 0.983566
 0.988770
 0.993974
 0.999178
 1.004382
 1.009586
 1.014791
 1.019995
 1.025199
 1.030403
 1.035607
 0.000000
 0.005230
 0.010460
 0.015690
 0.020921
 0.026151
 0.031381
 0.036611
 0.041841
 0.047071
 0.052301
 0.057532
 0.062762
 0.067992
 0.073222
 0.078452
 0.083682
 0.088912
 0.094143
 0.099373
 0.104603
 0.109833
 0.115063
 0.120293
 0.125523
 0.130753
 0.135984
 0.141214
 0.146444
 0.151674
 0.156904
 0.162134
 0.167364
 0.172595
 0.177825
 0.183055
 0.188285
 0.193515
 0.198745
 0.203975
 0.209206
 0.214436
 0.219666
 0.224896
 0.230126
 0.235356
 0.240586
 0.245817
 0.251047
 0.256277
 0.261507
 0.266737
 0.271967
 0.277197
 0.282428
 0.287658
 0.292888
 0.298118
 0.303348
 0.308578
 0.313808
 0.319039
 0.324269
 0.329499
 0.334729
 0.339959
 0.345189
 0.350419
 0.355649
 0.360880
 0.366110
 0.371340
 0.376570
 0.381800
 0.387030
 0.392260
 0.397491
 0.402721
 0.407951
 0.413181
 0.418411
 0.423641
 0.428871
 0.434102
 0.439332
 0.444562
 0.449792
 0.455022
 0.460252
 0.465482
 0.470713
 0.475943
 0.481173
 0.486403
 0.491633
 0.496863
 0.502093
 0.507324
 0.512554
 0.517784
 0.523014
 0.528244
 0.533474
 0.538704
 0.543935
 0.549165
 0.554395
 0.559625
 0.564855
 0.570085
 0.575315
 0.580545
 0.585776
 0.591006
 0.596236
 0.601466
 0.606696
 0.611926
 0.617156
 0.622387
 0.627617
 0.632847
 0.638077
 0.643307
 0.648537
 0.653767
 0.658998
 0.664228
 0.669458
 0.674688
 0.679918
 0.685148
 0.690378
 0.695609
 0.700839
 0.706069
 0.711299
 0.716529
 0.721759
 0.726989
 0.732220
 0.737450
 0.742680
 0.747910
 0.753140
 0.758370
 0.763600
 0.768830
 0.774061
 0.779291
 0.784521
 0.789751
 0.794981
 0.800211
 0.805441
 0.810672
 0.815902
 0.821132
 0.826362
 0.831592
 0.836822
 0.842052
 0.847283
 0.852513
 0.857743
 0.862973
 0.868203
 0.873433
 0.878663
 0.883894
 0.889124
 0.894354
 0.899584
 0.904814
 0.910044
 0.915274
 0.920505
 0.925735
 0.930965
 0.936195
 0.941425
 0.946655
 0.951885
 0.957116
 0.962346
 0.967576
 0.972806
 0.978036
 0.983266
 0.988496
 0.993726
 0.998957
 1.004187
 1.009417