# vtk DataFile Version 2.0 
Grid
ASCII
DATASET STRUCTURED_GRID
DIMENSIONS 200 300 1
POINTS 60000 float
0.000000 0.000000 0.000000
0.005025 0.000000 0.000000
0.010050 0.000000 0.000000
0.015075 0.000000 0.000000
0.020101 0.000000 0.000000
0.025126 0.000000 0.000000
0.030151 0.000000 0.000000
0.035176 0.000000 0.000000
0.040201 0.000000 0.000000
0.045226 0.000000 0.000000
0.050251 0.000000 0.000000
0.055276 0.000000 0.000000
0.060302 0.000000 0.000000
0.065327 0.000000 0.000000
0.070352 0.000000 0.000000
0.075377 0.000000 0.000000
0.080402 0.000000 0.000000
0.085427 0.000000 0.000000
0.090452 0.000000 0.000000
0.095477 0.000000 0.000000
0.100503 0.000000 0.000000
0.105528 0.000000 0.000000
0.110553 0.000000 0.000000
0.115578 0.000000 0.000000
0.120603 0.000000 0.000000
0.125628 0.000000 0.000000
0.130653 0.000000 0.000000
0.135678 0.000000 0.000000
0.140704 0.000000 0.000000
0.145729 0.000000 0.000000
0.150754 0.000000 0.000000
0.155779 0.000000 0.000000
0.160804 0.000000 0.000000
0.165829 0.000000 0.000000
0.170854 0.000000 0.000000
0.175879 0.000000 0.000000
0.180905 0.000000 0.000000
0.185930 0.000000 0.000000
0.190955 0.000000 0.000000
0.195980 0.000000 0.000000
0.201005 0.000000 0.000000
0.206030 0.000000 0.000000
0.211055 0.000000 0.000000
0.216080 0.000000 0.000000
0.221106 0.000000 0.000000
0.226131 0.000000 0.000000
0.231156 0.000000 0.000000
0.236181 0.000000 0.000000
0.241206 0.000000 0.000000
0.246231 0.000000 0.000000
0.251256 0.000000 0.000000
0.256281 0.000000 0.000000
0.261307 0.000000 0.000000
0.266332 0.000000 0.000000
0.271357 0.000000 0.000000
0.276382 0.000000 0.000000
0.281407 0.000000 0.000000
0.286432 0.000000 0.000000
0.291457 0.000000 0.000000
0.296482 0.000000 0.000000
0.301508 0.000000 0.000000
0.306533 0.000000 0.000000
0.311558 0.000000 0.000000
0.316583 0.000000 0.000000
0.321608 0.000000 0.000000
0.326633 0.000000 0.000000
0.331658 0.000000 0.000000
0.336683 0.000000 0.000000
0.341709 0.000000 0.000000
0.346734 0.000000 0.000000
0.351759 0.000000 0.000000
0.356784 0.000000 0.000000
0.361809 0.000000 0.000000
0.366834 0.000000 0.000000
0.371859 0.000000 0.000000
0.376884 0.000000 0.000000
0.381910 0.000000 0.000000
0.386935 0.000000 0.000000
0.391960 0.000000 0.000000
0.396985 0.000000 0.000000
0.402010 0.000000 0.000000
0.407035 0.000000 0.000000
0.412060 0.000000 0.000000
0.417085 0.000000 0.000000
0.422111 0.000000 0.000000
0.427136 0.000000 0.000000
0.432161 0.000000 0.000000
0.437186 0.000000 0.000000
0.442211 0.000000 0.000000
0.447236 0.000000 0.000000
0.452261 0.000000 0.000000
0.457286 0.000000 0.000000
0.462312 0.000000 0.000000
0.467337 0.000000 0.000000
0.472362 0.000000 0.000000
0.477387 0.000000 0.000000
0.482412 0.000000 0.000000
0.487437 0.000000 0.000000
0.492462 0.000000 0.000000
0.497487 0.000000 0.000000
0.502513 0.000000 0.000000
0.507538 0.000000 0.000000
0.512563 0.000000 0.000000
0.517588 0.000000 0.000000
0.522613 0.000000 0.000000
0.527638 0.000000 0.000000
0.532663 0.000000 0.000000
0.537688 0.000000 0.000000
0.542714 0.000000 0.000000
0.547739 0.000000 0.000000
0.552764 0.000000 0.000000
0.557789 0.000000 0.000000
0.562814 0.000000 0.000000
0.567839 0.000000 0.000000
0.572864 0.000000 0.000000
0.577889 0.000000 0.000000
0.582915 0.000000 0.000000
0.587940 0.000000 0.000000
0.592965 0.000000 0.000000
0.597990 0.000000 0.000000
0.603015 0.000000 0.000000
0.608040 0.000000 0.000000
0.613065 0.000000 0.000000
0.618090 0.000000 0.000000
0.623116 0.000000 0.000000
0.628141 0.000000 0.000000
0.633166 0.000000 0.000000
0.638191 0.000000 0.000000
0.643216 0.000000 0.000000
0.648241 0.000000 0.000000
0.653266 0.000000 0.000000
0.658291 0.000000 0.000000
0.663317 0.000000 0.000000
0.668342 0.000000 0.000000
0.673367 0.000000 0.000000
0.678392 0.000000 0.000000
0.683417 0.000000 0.000000
0.688442 0.000000 0.000000
0.693467 0.000000 0.000000
0.698492 0.000000 0.000000
0.703518 0.000000 0.000000
0.708543 0.000000 0.000000
0.713568 0.000000 0.000000
0.718593 0.000000 0.000000
0.723618 0.000000 0.000000
0.728643 0.000000 0.000000
0.733668 0.000000 0.000000
0.738693 0.000000 0.000000
0.743719 0.000000 0.000000
0.748744 0.000000 0.000000
0.753769 0.000000 0.000000
0.758794 0.000000 0.000000
0.763819 0.000000 0.000000
0.768844 0.000000 0.000000
0.773869 0.000000 0.000000
0.778894 0.000000 0.000000
0.783920 0.000000 0.000000
0.788945 0.000000 0.000000
0.793970 0.000000 0.000000
0.798995 0.000000 0.000000
0.804020 0.000000 0.000000
0.809045 0.000000 0.000000
0.814070 0.000000 0.000000
0.819095 0.000000 0.000000
0.824121 0.000000 0.000000
0.829146 0.000000 0.000000
0.834171 0.000000 0.000000
0.839196 0.000000 0.000000
0.844221 0.000000 0.000000
0.849246 0.000000 0.000000
0.854271 0.000000 0.000000
0.859296 0.000000 0.000000
0.864322 0.000000 0.000000
0.869347 0.000000 0.000000
0.874372 0.000000 0.000000
0.879397 0.000000 0.000000
0.884422 0.000000 0.000000
0.889447 0.000000 0.000000
0.894472 0.000000 0.000000
0.899497 0.000000 0.000000
0.904523 0.000000 0.000000
0.909548 0.000000 0.000000
0.914573 0.000000 0.000000
0.919598 0.000000 0.000000
0.924623 0.000000 0.000000
0.929648 0.000000 0.000000
0.934673 0.000000 0.000000
0.939698 0.000000 0.000000
0.944724 0.000000 0.000000
0.949749 0.000000 0.000000
0.954774 0.000000 0.000000
0.959799 0.000000 0.000000
0.964824 0.000000 0.000000
0.969849 0.000000 0.000000
0.974874 0.000000 0.000000
0.979899 0.000000 0.000000
0.984925 0.000000 0.000000
0.989950 0.000000 0.000000
0.994975 0.000000 0.000000
1.000000 0.000000 0.000000
0.000000 0.003344 0.000000
0.005025 0.003344 0.000000
0.010050 0.003344 0.000000
0.015075 0.003344 0.000000
0.020101 0.003344 0.000000
0.025126 0.003344 0.000000
0.030151 0.003344 0.000000
0.035176 0.003344 0.000000
0.040201 0.003344 0.000000
0.045226 0.003344 0.000000
0.050251 0.003344 0.000000
0.055276 0.003344 0.000000
0.060302 0.003344 0.000000
0.065327 0.003344 0.000000
0.070352 0.003344 0.000000
0.075377 0.003344 0.000000
0.080402 0.003344 0.000000
0.085427 0.003344 0.000000
0.090452 0.003344 0.000000
0.095477 0.003344 0.000000
0.100503 0.003344 0.000000
0.105528 0.003344 0.000000
0.110553 0.003344 0.000000
0.115578 0.003344 0.000000
0.120603 0.003344 0.000000
0.125628 0.003344 0.000000
0.130653 0.003344 0.000000
0.135678 0.003344 0.000000
0.140704 0.003344 0.000000
0.145729 0.003344 0.000000
0.150754 0.003344 0.000000
0.155779 0.003344 0.000000
0.160804 0.003344 0.000000
0.165829 0.003344 0.000000
0.170854 0.003344 0.000000
0.175879 0.003344 0.000000
0.180905 0.003344 0.000000
0.185930 0.003344 0.000000
0.190955 0.003344 0.000000
0.195980 0.003344 0.000000
0.201005 0.003344 0.000000
0.206030 0.003344 0.000000
0.211055 0.003344 0.000000
0.216080 0.003344 0.000000
0.221106 0.003344 0.000000
0.226131 0.003344 0.000000
0.231156 0.003344 0.000000
0.236181 0.003344 0.000000
0.241206 0.003344 0.000000
0.246231 0.003344 0.000000
0.251256 0.003344 0.000000
0.256281 0.003344 0.000000
0.261307 0.003344 0.000000
0.266332 0.003344 0.000000
0.271357 0.003344 0.000000
0.276382 0.003344 0.000000
0.281407 0.003344 0.000000
0.286432 0.003344 0.000000
0.291457 0.003344 0.000000
0.296482 0.003344 0.000000
0.301508 0.003344 0.000000
0.306533 0.003344 0.000000
0.311558 0.003344 0.000000
0.316583 0.003344 0.000000
0.321608 0.003344 0.000000
0.326633 0.003344 0.000000
0.331658 0.003344 0.000000
0.336683 0.003344 0.000000
0.341709 0.003344 0.000000
0.346734 0.003344 0.000000
0.351759 0.003344 0.000000
0.356784 0.003344 0.000000
0.361809 0.003344 0.000000
0.366834 0.003344 0.000000
0.371859 0.003344 0.000000
0.376884 0.003344 0.000000
0.381910 0.003344 0.000000
0.386935 0.003344 0.000000
0.391960 0.003344 0.000000
0.396985 0.003344 0.000000
0.402010 0.003344 0.000000
0.407035 0.003344 0.000000
0.412060 0.003344 0.000000
0.417085 0.003344 0.000000
0.422111 0.003344 0.000000
0.427136 0.003344 0.000000
0.432161 0.003344 0.000000
0.437186 0.003344 0.000000
0.442211 0.003344 0.000000
0.447236 0.003344 0.000000
0.452261 0.003344 0.000000
0.457286 0.003344 0.000000
0.462312 0.003344 0.000000
0.467337 0.003344 0.000000
0.472362 0.003344 0.000000
0.477387 0.003344 0.000000
0.482412 0.003344 0.000000
0.487437 0.003344 0.000000
0.492462 0.003344 0.000000
0.497487 0.003344 0.000000
0.502513 0.003344 0.000000
0.507538 0.003344 0.000000
0.512563 0.003344 0.000000
0.517588 0.003344 0.000000
0.522613 0.003344 0.000000
0.527638 0.003344 0.000000
0.532663 0.003344 0.000000
0.537688 0.003344 0.000000
0.542714 0.003344 0.000000
0.547739 0.003344 0.000000
0.552764 0.003344 0.000000
0.557789 0.003344 0.000000
0.562814 0.003344 0.000000
0.567839 0.003344 0.000000
0.572864 0.003344 0.000000
0.577889 0.003344 0.000000
0.582915 0.003344 0.000000
0.587940 0.003344 0.000000
0.592965 0.003344 0.000000
0.597990 0.003344 0.000000
0.603015 0.003344 0.000000
0.608040 0.003344 0.000000
0.613065 0.003344 0.000000
0.618090 0.003344 0.000000
0.623116 0.003344 0.000000
0.628141 0.003344 0.000000
0.633166 0.003344 0.000000
0.638191 0.003344 0.000000
0.643216 0.003344 0.000000
0.648241 0.003344 0.000000
0.653266 0.003344 0.000000
0.658291 0.003344 0.000000
0.663317 0.003344 0.000000
0.668342 0.003344 0.000000
0.673367 0.003344 0.000000
0.678392 0.003344 0.000000
0.683417 0.003344 0.000000
0.688442 0.003344 0.000000
0.693467 0.003344 0.000000
0.698492 0.003344 0.000000
0.703518 0.003344 0.000000
0.708543 0.003344 0.000000
0.713568 0.003344 0.000000
0.718593 0.003344 0.000000
0.723618 0.003344 0.000000
0.728643 0.003344 0.000000
0.733668 0.003344 0.000000
0.738693 0.003344 0.000000
0.743719 0.003344 0.000000
0.748744 0.003344 0.000000
0.753769 0.003344 0.000000
0.758794 0.003344 0.000000
0.763819 0.003344 0.000000
0.768844 0.003344 0.000000
0.773869 0.003344 0.000000
0.778894 0.003344 0.000000
0.783920 0.003344 0.000000
0.788945 0.003344 0.000000
0.793970 0.003344 0.000000
0.798995 0.003344 0.000000
0.804020 0.003344 0.000000
0.809045 0.003344 0.000000
0.814070 0.003344 0.000000
0.819095 0.003344 0.000000
0.824121 0.003344 0.000000
0.829146 0.003344 0.000000
[...]
POINT_DATA 60000
SCALARS P float 1
LOOKUP_TABLE default
 0.000000
 0.005000
 0.010000
 0.015000
 0.020000
 0.025000
 0.030000
 0.035000
 0.040000
 0.045000
 0.050000
 0.055000
 0.060000
 0.065000
 0.070000
 0.075000
 0.080000
 0.085000
 0.090000
 0.095000
 0.100000
 0.105000
 0.110000
 0.115000
 0.120000
 0.125000
 0.130000
 0.135000
 0.140000
 0.145000
 0.150000
 0.155000
 0.160000
 0.165000
 0.170000
 0.175000
 0.180000
 0.185000
 0.190000
 0.195000
 0.200000
 0.205000
 0.210000
 0.215000
 0.220000
 0.225000
 0.230000
 0.235000
 0.240000
 0.245000
 0.250000
 0.255000
 0.260000
 0.265000
 0.270000
 0.275000
 0.280000
 0.285000
 0.290000
 0.295000
 0.300000
 0.305000
 0.310000
 0.315000
 0.320000
 0.325000
 0.330000
 0.335000
 0.340000
 0.345000
 0.350000
 0.355000
 0.360000
 0.365000
 0.370000
 0.375000
 0.380000
 0.385000
 0.390000
 0.395000
 0.400000
 0.405000
 0.410000
 0.415000
 0.420000
 0.425000
 0.430000
 0.435000
 0.440000
 0.445000
 0.450000
 0.455000
 0.460000
 0.465000
 0.470000
 0.475000
 0.480000
 0.485000
 0.490000
 0.495000
 0.500000
 0.505000
 0.510000
 0.515000
 0.520000
 0.525000
 0.530000
 0.535000
 0.540000
 0.545000
 0.550000
 0.555000
 0.560000
 0.565000
 0.570000
 0.575000
 0.580000
 0.585000
 0.590000
 0.595000
 0.600000
 0.605000
 0.610000
 0.615000
 0.620000
 0.625000
 0.630000
 0.635000
 0.640000
 0.645000
 0.650000
 0.655000
 0.660000
 0.665000
 0.670000
 0.675000
 0.680000
 0.685000
 0.690000
 0.695000
 0.700000
 0.705000
 0.710000
 0.715000
 0.720000
 0.725000
 0.730000
 0.735000
 0.740000
 0.745000
 0.750000
 0.755000
 0.760000
 0.765000
 0.770000
 0.775000
 0.780000
 0.785000
 0.790000
 0.795000
 0.800000
 0.805000
 0.810000
 0.815000
 0.820000
 0.825000
 0.830000
 0.835000
 0.840000
 0.845000
 0.850000
 0.855000
 0.860000
 0.865000
 0.870000
 0.875000
 0.880000
 0.885000
 0.890000
 0.895000
 0.900000
 0.905000
 0.910000
 0.915000
 0.920000
 0.925000
 0.930000
 0.935000
 0.940000
 0.945000
 0.950000
 0.955000
 0.960000
 0.965000
 0.970000
 0.975000
 0.980000
 0.985000
 0.990000
 0.995000
 0.000000
 0.005017
 0.010034
 0.015050
 0.020067
 0.025084
 0.030101
 0.035117
 0.040134
 0.045151
 0.050168
 0.055184
 0.060201
 0.065218
 0.070235
 0.075251
 0.080268
 0.085285
 0.090302
 0.095318
 0.100335
 0.105352
 0.110369
 0.115385
 0.120402
 0.125419
 0.130436
 0.135452
 0.140469
 0.145486
 0.150503
 0.155519
 0.160536
 0.165553
 0.170570
 0.175586
 0.180603
 0.185620
 0.190637
 0.195653
 0.200670
 0.205687
 0.210704
 0.215720
 0.220737
 0.225754
 0.230771
 0.235787
 0.240804
 0.245821
 0.250838
 0.255854
 0.260871
 0.265888
 0.270904
 0.275921
 0.280938
 0.285955
 0.290971
 0.295988
 0.301005
 0.306022
 0.311038
 0.316055
 0.321072
 0.326089
 0.331105
 0.336122
 0.341139
 0.346156
 0.351172
 0.356189
 0.361206
 0.366223
 0.371239
 0.376256
 0.381273
 0.386290
 0.391306
 0.396323
 0.401340
 0.406356
 0.411373
 0.416390
 0.421407
 0.426423
 0.431440
 0.436457
 0.441474
 0.446490
 0.451507
 0.456524
 0.461541
 0.466557
 0.471574
 0.476591
 0.481607
 0.486624
 0.491641
 0.496658
 0.501674
 0.506691
 0.511708
 0.516724
 0.521741
 0.526758
 0.531775
 0.536791
 0.541808
 0.546825
 0.551842
 0.556858
 0.561875
 0.566892
 0.571908
 0.576925
 0.581942
 0.586959
 0.591975
 0.596992
 0.602009
 0.607025
 0.612042
 0.617059
 0.622075
 0.627092
 0.632109
 0.637126
 0.642142
 0.647159
 0.652176
 0.657192
 0.662209
 0.667226
 0.672242
 0.677259
 0.682276
 0.687292
 0.692309
 0.697326
 0.702343
 0.707359
 0.712376
 0.717393
 0.722409
 0.727426
 0.732443
 0.737459
 0.742476
 0.747493
 0.752509
 0.757526
 0.762543
 0.767559
 0.772576
 0.777593
 0.782609
 0.787626
 0.792643
 0.797659
 0.802676
 0.807693
 0.812709
 0.817726
 0.822742
 0.827759
 0.832776
 0.837792
 0.842809
 0.847826
 0.852842
 0.857859
 0.862875
 0.867892
 0.872909
 0.877925
 0.882942
 0.887959
 0.892975
 0.897992
 0.903008
 0.908025
 0.913042
 0.918058
 0.923075
 0.928091
 0.933108
 0.938124
 0.943141
 0.948157
 0.953174
 0.958191
 0.963207
 0.968224
 0.973240
 0.978257
 0.983273
 0.988289
 0.993306
 0.998322
 0.000000
 0.005034
 0.010067
 0.015101
 0.020134
 0.025168
 0.030201
 0.035235
 0.040268
 0.045302
 0.050336
 0.055369
 0.060403
 0.065436
 0.070470
 0.075503
 0.080537
 0.085571
 0.090604
 0.095638
 0.100671
 0.105705
 0.110738
 0.115772
 0.120805
 0.125839
 0.130873
 0.135906
 0.140940
 0.145973
 0.151007
 0.156040
 0.161074
 0.166107
 0.171141
 0.176175
 0.181208
 0.186242
 0.191275
 0.196309
 0.201342
 0.206376
 0.211409
 0.216443
 0.221476
 0.226510
 0.231544
 0.236577
 0.241611
 0.246644
 0.251678
 0.256711
 0.261745
 0.266778
 0.271812
 0.276846
 0.281879
 0.286913
 0.291946
 0.296980
 0.302013
 0.307047
 0.312080
 0.317114
 0.322147
 0.327181
 0.332214
 0.337248
 0.342282
 0.347315
 0.352349
 0.357382
 0.362416
 0.367449
 0.372483
 0.377516
 0.382550
 0.387583
 0.392617
 0.397650
 0.402684
 0.407717
 0.412751
 0.417784
 0.422818
 0.427852
 0.432885
 0.437919
 0.442952
 0.447986
 0.453019
 0.458053
 0.463086
 0.468120
 0.473153
 0.478187
 0.483220
 0.488254
 0.493287
 0.498321
 0.503354
 0.508388
 0.513421
 0.518455
 0.523488
 0.528522
 0.533555
 0.538589
 0.543622
 0.548656
 0.553689
 0.558723
 0.563756
 0.568790
 0.573823
 0.578857
 0.583890
 0.588923
 0.593957
 0.598990
 0.604024
 0.609057
 0.614091
 0.619124
 0.624158
 0.629191
 0.634225
 0.639258
 0.644292
 0.649325
 0.654358
 0.659392
 0.664425
 0.669459
 0.674492
 0.679526
 0.684559
 0.689593
 0.694626
 0.699659
 0.704693
 0.709726
 0.714760
 0.719793
 0.724826
 0.729860
 0.734893
 0.739927
 0.744960
 0.749993
 0.755027
 0.760060
 0.765094
 0.770127
 0.775160
 0.780194
 0.785227
 0.790261
 0.795294
 0.800327
 0.805361
 0.810394
 0.815427
 0.820461
 0.825494
 0.830527
 0.835561
 0.840594
 0.845627
 0.850661
 0.855694
 0.860727
 0.865761
 0.870794
 0.875827
 0.880860
 0.885894
 0.890927
 0.895960
 0.900993
 0.906027
 0.911060
 0.916093
 0.921126
 0.926160
 0.931193
 0.936226
 0.941259
 0.946292
 0.951325
 0.956359
 0.961392
 0.966425
 0.971458
 0.976491
 0.981524
 0.986557
 0.991590
 0.996623
 1.001656
 0.000000
 0.005050
 0.010101
 0.015151
 0.020202
 0.025252
 0.030303
 0.035353
 0.040403
 0.045454
 0.050504
 0.055555
 0.060605
 0.065655
 0.070706
 0.075756
 0.080807
 0.085857
 0.090908
 0.095958
 0.101008
 0.106059
 0.111109
 0.116160
 0.121210
 0.126261
 0.131311
 0.136361
 0.141412
 0.146462
 0.151513
 0.156563
 0.161613
 0.166664
 0.171714
 0.176765
 0.181815
 0.186866
 0.191916
 0.196966
 0.202017
 0.207067
 0.212118
 0.217168
 0.222218
 0.227269
 0.232319
 0.237370
 0.242420
 0.247470
 0.252521
 0.257571
 0.262622
 0.267672
 0.272722
 0.277773
 0.282823
 0.287874
 0.292924
 0.297974
 0.303025
 0.308075
 0.313126
 0.318176
 0.323226
 0.328277
 0.333327
 0.338378
 0.343428
 0.348478
 0.353529
 0.358579
 0.363630
 0.368680
 0.373730
 0.378781
 0.383831
 0.388881
 0.393932
 0.398982
 0.404033
 0.409083
 0.414133
 0.419184
 0.424234
 0.429284
 0.434335
 0.439385
 0.444435
 0.449486
 0.454536
 0.459586
 0.464637
 0.469687
 0.474738
 0.479788
 0.484838
 0.489889
 0.494939
 0.499989
 0.505040
 0.510090
 0.515140
 0.520191
 0.525241
 0.530291
 0.535342
 0.540392
 0.545442
 0.550493
 0.555543
 0.560593
 0.565643
 0.570694
 0.575744
 0.580794
 0.585845
 0.590895
 0.595945
 0.600996
 0.606046
 0.611096
 0.616146
 0.621197
 0.626247
 0.631297
 0.636347
 0.641398
 0.646448
 0.651498
 0.656549
 0.661599
 0.666649
 0.671699
 0.676750
 0.681800
 0.686850
 0.691900
 0.696950
 0.702001
 0.707051
 0.712101
 0.717151
 0.722202
 0.727252
 0.732302
 0.737352
 0.742402
 0.747452
 0.752503
 0.757553
 0.762603
 0.767653
 0.772703
 0.777753
 0.782804
 0.787854
 0.792904
 0.797954
 0.803004
 0.808054
 0.813104
 0.818154
 0.823205
 0.828255
 0.833305
 0.838355
 0.843405
 0.848455
 0.853505
 0.858555
 0.863605
 0.868655
 0.873705
 0.878755
 0.883805
 0.888855
 0.893905
 0.898955
 0.904005
 0.909055
 0.914105
 0.919155
 0.924205
 0.929255
 0.934304
 0.939354
 0.944404
 0.949454
 0.954504
 0.959554
 0.964603
 0.969653
 0.974703
 0.979752
 0.984802
 0.989852
 0.994901
 0.999951
 1.005000
 0.000000
 0.005067
 0.010135
 0.015202
 0.020269
 0.025337
 0.030404
 0.035471
 0.040539
 0.045606
 0.050673
 0.055741
 0.060808
 0.065875
 0.070943
 0.076010
 0.081077
 0.086145
 0.091212
 0.096279
 0.101347
 0.106414
 0.111481
 0.116549
 0.121616
 0.126684
 0.131751
 0.136818
 0.141886
 0.146953
 0.152020
 0.157088
 0.162155
 0.167222
 0.172290
 0.177357
 0.182424
 0.187491
 0.192559
 0.197626
 0.202693
 0.207761
 0.212828
 0.217895
 0.222963
 0.228030
 0.233097
 0.238165
 0.243232
 0.248299
 0.253367
 0.258434
 0.263501
 0.268569
 0.273636
 0.278703
 0.283771
 0.288838
 0.293905
 0.298972
 0.304040
 0.309107
 0.314174
 0.319242
 0.324309
 0.329376
 0.334444
 0.339511
 0.344578
 0.349645
 0.354713
 0.359780
 0.364847
 0.369915
 0.374982
 0.380049
 0.385116
 0.390184
 0.395251
 0.400318
 0.405386
 0.410453
 0.415520
 0.420587
 0.425655
 0.430722
 0.435789
 0.440856
 0.445924
 0.450991
 0.456058
 0.461125
 0.466193
 0.471260
 0.476327
 0.481394
 0.486462
 0.491529
 0.496596
 0.501663
 0.506731
 0.511798
 0.516865
 0.521932
 0.526999
 0.532067
 0.537134
 0.542201
 0.547268
 0.552335
 0.557403
 0.562470
 0.567537
 0.572604
 0.577671
 0.582739
 0.587806
 0.592873
 0.597940
 0.603007
 0.608074
 0.613142
 0.618209
 0.623276
 0.628343
 0.633410
 0.638477
 0.643544
 0.648612
 0.653679
 0.658746
 0.663813
 0.668880
 0.673947
 0.679014
 0.684081
 0.689148
 0.694216
 0.699283
 0.704350
 0.709417
 0.714484
 0.719551
 0.724618
 0.729685
 0.734752
 0.739819
 0.744886
 0.749953
 0.755020
 0.760087
 0.765154
 0.770221
 0.775288
 0.780355
 0.785422
 0.790489
 0.795556
 0.800623
 0.805690
 0.810757
 0.815824
 0.820891
 0.825958
 0.831024
 0.836091
 0.841158
 0.846225
 0.851292
 0.856359
 0.861426
 0.866492
 0.871559
 0.876626
 0.881693
 0.886760
 0.891826
 0.896893
 0.901960
 0.907027
 0.912093
 0.917160
 0.922227
 0.927293
 0.932360
 0.937427
 0.942493
 0.947560
 0.952626
 0.957693
 0.962759
 0.967826
 0.972892
 0.977959
 0.983025
 0.988091
 0.993157
 0.998224
 1.003290
 1.008355
 0.000000
 0.005084
 0.010169
 0.015253
 0.020337
 0.025422
 0.030506
 0.035590
 0.040675
 0.045759
 0.050843
 0.055927
 0.061012
 0.066096
 0.071180
 0.076265
 0.081349
 0.086433
 0.091518
 0.096602
 0.101686
 0.106771
 0.111855
 0.116939
 0.122024
 0.127108
 0.132192
 0.137276
 0.142361
 0.147445
 0.152529
 0.157614
 0.162698
 0.167782
 0.172867
 0.177951
 0.183035
 0.188120
 0.193204
 0.198288
 0.203372
 0.208457
 0.213541
 0.218625
 0.223710
 0.228794
 0.233878
 0.238962
 0.244047
 0.249131
 0.254215
 0.259300
 0.264384
 0.269468
 0.274552
 0.279637
 0.284721
 0.289805
 0.294890
 0.299974
 0.305058
 0.310142
 0.315227
 0.320311
 0.325395
 0.330479
 0.335564
 0.340648
 0.345732
 0.350816
 0.355901
 0.360985
 0.366069
 0.371153
 0.376238
 0.381322
 0.386406
 0.391490
 0.396575
 0.401659
 0.406743
 0.411827
 0.416912
 0.421996
 0.427080
 0.432164
 0.437248
 0.442333
 0.447417
 0.452501
 0.457585
 0.462669
 0.467754
 0.472838
 0.477922
 0.483006
 0.488090
 0.493175
 0.498259
 0.503343
 0.508427
 0.513511
 0.518596
 0.523680
 0.528764
 0.533848
 0.538932
 0.544016
 0.549100
 0.554185
 0.559269
 0.564353
 0.569437
 0.574521
 0.579605
 0.584689
 0.589773
 0.594858
 0.599942
 0.605026
 0.610110
 0.615194
 0.620278
 0.625362
 0.630446
 0.635530
 0.640614
 0.645698
 0.650782
 0.655866
 0.660950
 0.666034
 0.671118
 0.676203
 0.681287
 0.686371
 0.691455
 0.696539
 0.701623
 0.706706
 0.711790
 0.716874
 0.721958
 0.727042
 0.732126
 0.737210
 0.742294
 0.747378
 0.752462
 0.757546
 0.762630
 0.767714
 0.772798
 0.777881
 0.782965
 0.788049
 0.793133
 0.798217
 0.803301
 0.808384
 0.813468
 0.818552
 0.823636
 0.828720
 0.833803
 0.838887
 0.843971
 0.849055
 0.854138
 0.859222
 0.864306
 0.869389
 0.874473
 0.879557
 0.884640
 0.889724
 0.894808
 0.899891
 0.904975
 0.910058
 0.915142
 0.920225
 0.925309
 0.930392
 0.935476
 0.940559
 0.945642
 0.950726
 0.955809
 0.960892
 0.965976
 0.971059
 0.976142
 0.981225
 0.986308
 0.991391
 0.996474
 1.001557
 1.006640
 1.011722
 0.000000
 0.005101
 0.010203
 0.015304
 0.020405
 0.025507
 0.030608
 0.035709
 0.040811
 0.045912
 0.051013
 0.056115
 0.061216
 0.066318
 0.071419
 0.076520
 0.081622
 0.086723
 0.091824
 0.096926
 0.102027
 0.107128
 0.112230
 0.117331
 0.122432
 0.127534
 0.132635
 0.137736
 0.142838
 0.147939
 0.153040
 0.158142
 0.163243
 0.168344
 0.173446
 0.178547
 0.183648
 0.188750
 0.193851
 0.198952
 0.204054
 0.209155
 0.214256
 0.219358
 0.224459
 0.229560
 0.234662
 0.239763
 0.244864
 0.249965
 0.255067
 0.260168
 0.265269
 0.270371
 0.275472
 0.280573
 0.285675
 0.290776
 0.295877
 0.300978
 0.306080
 0.311181
 0.316282
 0.321384
 0.326485
 0.331586
 0.336688
 0.341789
 0.346890
 0.351991
 0.357093
 0.362194
 0.367295
 0.372396
 0.377498
 0.382599
 0.387700
 0.392801
 0.397903
 0.403004
 0.408105
 0.413206
 0.418308
 0.423409
 0.428510
 0.433611
 0.438713
 0.443814
 0.448915
 0.454016
 0.459117
 0.464219
 0.469320
 0.474421
 0.479522
 0.484623
 0.489725
 0.494826
 0.499927
 0.505028
 0.510129
 0.515231
 0.520332
 0.525433
 0.530534
 0.535635
 0.540736
 0.545837
 0.550939
 0.556040
 0.561141
 0.566242
 0.571343
 0.576444
 0.581545
 0.586646
 0.591748
 0.596849
 0.601950
 0.607051
 0.612152
 0.617253
 0.622354
 0.627455
 0.632556
 0.637657
 0.642758
 0.647859
 0.652960
 0.658061
 0.663162
 0.668263
 0.673364
 0.678465
 0.683566
 0.688667
 0.693768
 0.698869
 0.703970
 0.709071
 0.714172
 0.719273
 0.724374
 0.729475
 0.734576
 0.739677
 0.744777
 0.749878
 0.754979
 0.760080
 0.765181
 0.770282
 0.775383
 0.780483
 0.785584
 0.790685
 0.795786
 0.800887
 0.805987
 0.811088
 0.816189
 0.821290
 0.826390
 0.831491
 0.836592
 0.841692
 0.846793
 0.851894
 0.856994
 0.862095
 0.867195
 0.872296
 0.877397
 0.882497
 0.887598
 0.892698
 0.897799
 0.902899
 0.907999
 0.913100
 0.918200
 0.923301
 0.928401
 0.933501
 0.938602
 0.943702
 0.948802
 0.953902
 0.959002
 0.964103
 0.969203
 0.974303
 0.979403
 0.984503
 0.989602
 0.994702
 0.999802
 1.004902
 1.010001
 1.015100
 0.000000
 0.005118
 0.010237
 0.015355
 0.020474
 0.025592
 0.030711
 0.035829
 0.040947
 0.046066
 0.051184
 0.056303
 0.061421
 0.066540
 0.071658
 0.076777
 0.081895
 0.087013
 0.092132
 0.097250
 0.102369
 0.107487
 0.112606
 0.117724
 0.122842
 0.127961
 0.133079
 0.138198
 0.143316
 0.148434
 0.153553
 0.158671
 0.163790
 0.168908
 0.174027
 0.179145
 0.184263
 0.189382
 0.194500
 0.199619
 0.204737
 0.209855
 0.214974
 0.220092
 0.225211
 0.230329
 0.235447
 0.240566
 0.245684
 0.250803
 0.255921
 0.261039
 0.266158
 0.271276
 0.276395
 0.281513
 0.286631
 0.291750
 0.296868
 0.301986
 0.307105
 0.312223
 0.317342
 0.322460
 0.327578
 0.332697
 0.337815
 0.342933
 0.348052
 0.353170
 0.358288
 0.363407
 0.368525
 0.373643
 0.378762
 0.383880
 0.388998
 0.394117
 0.399235
 0.404353
 0.409472
 0.414590
 0.419708
 0.424827
 0.429945
 0.435063
 0.440182
 0.445300
 0.450418
 0.455536
 0.460655
 0.465773
 0.470891
 0.476009
 0.481128
 0.486246
 0.491364
 0.496482
 0.501601
 0.506719
 0.511837
 0.516955
 0.522074
 0.527192
 0.532310
 0.537428
 0.542546
 0.547665
 0.552783
 0.557901
 0.563019
 0.568137
 0.573256
 0.578374
 0.583492
 0.588610
 0.593728
 0.598846
 0.603964
 0.609083
 0.614201
 0.619319
 0.624437
 0.629555
 0.634673
 0.639791
 0.644909
 0.650027
 0.655145
 0.660263
 0.665382
 0.670500
 0.675618
 0.680736
 0.685854
 0.690972
 0.696090
 0.701208
 0.706326
 0.711444
 0.716561
 0.721679
 0.726797
 0.731915
 0.737033
 0.742151
 0.747269
 0.752387
 0.757505
 0.762623
 0.767740
 0.772858
 0.777976
 0.783094
 0.788212
 0.793330
 0.798447
 0.803565
 0.808683
 0.813801
 0.818918
 0.824036
 0.829154
 0.834271
 0.839389
 0.844507
 0.849624
 0.854742
 0.859859
 0.864977
 0.870095
 0.875212
 0.880330
 0.885447
 0.890565
 0.895682
 0.900800
 0.905917
 0.911034
 0.916152
 0.921269
 0.926386
 0.931504
 0.936621
 0.941738
 0.946855
 0.951972
 0.957089
 0.962206
 0.967323
 0.972440
 0.977557
 0.982674
 0.987791
 0.992908
 0.998024
 1.003141
 1.008257
 1.013374
 1.018490
 0.000000
 0.005136
 0.010271
 0.015407
 0.020542
 0.025678
 0.030813
 0.035949
 0.041085
 0.046220
 0.051356
 0.056491
 0.061627
 0.066763
 0.071898
 0.077034
 0.082169
 0.087305
 0.092440
 0.097576
 0.102712
 0.107847
 0.112983
 0.118118
 0.123254
 0.128389
 0.133525
 0.138661
 0.143796
 0.148932
 0.154067
 0.159203
 0.164338
 0.169474
 0.174609
 0.179745
 0.184881
 0.190016
 0.195152
 0.200287
 0.205423
 0.210558
 0.215694
 0.220829
 0.225965
 0.231100
 0.236236
 0.241372
 0.246507
 0.251643
 0.256778
 0.261914
 0.267049
 0.272185
 0.277320
 0.282456
 0.287591
 0.292727
 0.297862
 0.302998
 0.308133
 0.313269
 0.318404
 0.323540
 0.328675
 0.333811
 0.338946
 0.344082
 0.349217
 0.354353
 0.359488
 0.364624
 0.369759
 0.374895
 0.380030
 0.385166
 0.390301
 0.395436
 0.400572
 0.405707
 0.410843
 0.415978
 0.421114
 0.426249
 0.431385
 0.436520
 0.441655
 0.446791
 0.451926
 0.457062
 0.462197
 0.467332
 0.472468
 0.477603
 0.482739
 0.487874
 0.493009
 0.498145
 0.503280
 0.508415
 0.513551
 0.518686
 0.523821
 0.528957
 0.534092
 0.539227
 0.544363
 0.549498
 0.554633
 0.559769
 0.564904
 0.570039
 0.575174
 0.580310
 0.585445
 0.590580
 0.595715
 0.600851
 0.605986
 0.611121
 0.616256
 0.621392
 0.626527
 0.631662
 0.636797
 0.641932
 0.647067
 0.652203
 0.657338
 0.662473
 0.667608
 0.672743
 0.677878
 0.683013
 0.688148
 0.693284
 0.698419
 0.703554
 0.708689
 0.713824
 0.718959
 0.724094
 0.729229
 0.734364
 0.739499
 0.744634
 0.749769
 0.754904
 0.760039
 0.765174
 0.770309
 0.775443
 0.780578
 0.785713
 0.790848
 0.795983
 0.801118
 0.806253
 0.811387
 0.816522
 0.821657
 0.826792
 0.831926
 0.837061
 0.842196
 0.847330
 0.852465
 0.857600
 0.862734
 0.867869
 0.873003
 0.878138
 0.883273
 0.888407
 0.893542
 0.898676
 0.903810
 0.908945
 0.914079
 0.919214
 0.924348
 0.929482
 0.934616
 0.939751
 0.944885
 0.950019
 0.955153
 0.960287
 0.965421
 0.970555
 0.975689
 0.980823
 0.985956
 0.991090
 0.996224
 1.001357
 1.006491
 1.011624
 1.016757
 1.021890
 0.000000
 0.005153
 0.010306
 0.015458
 0.020611
 0.025764
 0.030917
 0.036069
 0.041222
 0.046375
 0.051528
 0.056681
 0.061833
 0.066986
 0.072139
 0.077292
 0.082444
 0.087597
 0.092750
 0.097903
 0.103056
 0.108208
 0.113361
 0.118514
 0.123667
 0.128819
 0.133972
 0.139125
 0.144278
 0.149430
 0.154583
 0.159736
 0.164889
 0.170041
 0.175194
 0.180347
 0.185500
 0.190652
 0.195805
 0.200958
 0.206111
 0.211263
 0.216416
 0.221569
 0.226722
 0.231874
 0.237027
 0.242180
 0.247333
 0.252485
 0.257638
 0.262791
 0.267943
 0.273096
 0.278249
 0.283402
 0.288554
 0.293707
 0.298860
 0.304012
 0.309165
 0.314318
 0.319471
 0.324623
 0.329776
 0.334929
 0.340081
 0.345234
 0.350387
 0.355539
 0.360692
 0.365845
 0.370997
 0.376150
 0.381303
 0.386455
 0.391608
 0.396760
 0.401913
 0.407066
 0.412218
 0.417371
 0.422524
 0.427676
 0.432829
 0.437981
 0.443134
 0.448287
 0.453439
 0.458592
 0.463744
 0.468897
 0.474050
 0.479202
 0.484355
 0.489507
 0.494660
 0.499812
 0.504965
 0.510117
 0.515270
 0.520422
 0.525575
 0.530727
 0.535880
 0.541032
 0.546185
 0.551337
 0.556490
 0.561642
 0.566795
 0.571947
 0.577100
 0.582252
 0.587404
 0.592557
 0.597709
 0.602862
 0.608014
 0.613166
 0.618319
 0.623471
 0.628623
 0.633776
 0.638928
 0.644080
 0.649233
 0.654385
 0.659537
 0.664690
 0.669842
 0.674994
 0.680147
 0.685299
 0.690451
 0.695603
 0.700755
 0.705908
 0.711060
 0.716212
 0.721364
 0.726516
 0.731668
 0.736821
 0.741973
 0.747125
 0.752277
 0.757429
 0.762581
 0.767733
 0.772885
 0.778037
 0.783189
 0.788341
 0.793493
 0.798645
 0.803797
 0.808949
 0.814101
 0.819253
 0.824404
 0.829556
 0.834708
 0.839860
 0.845012
 0.850163
 0.855315
 0.860467
 0.865619
 0.870770
 0.875922
 0.881074
 0.886225
 0.891377
 0.896528
 0.901680
 0.906831
 0.911983
 0.917134
 0.922286
 0.927437
 0.932588
 0.937740
 0.942891
 0.948042
 0.953193
 0.958344
 0.963495
 0.968646
 0.973797
 0.978948
 0.984099
 0.989250
 0.994400