# vtk DataFile Version 2.0 
Grid
ASCII
DATASET STRUCTURED_GRID
DIMENSIONS 300 300 1
POINTS 90000 float
0.000000 0.000000 0.000000
0.003344 0.000000 0.000000
0.006689 0.000000 0.000000
0.010033 0.000000 0.000000
0.013378 0.000000 0.000000
0.016722 0.000000 0.000000
0.020067 0.000000 0.000000
0.023411 0.000000 0.000000
0.026756 0.000000 0.000000
0.030100 0.000000 0.000000
0.033445 0.000000 0.000000
0.036789 0.000000 0.000000
0.040134 0.000000 0.000000
0.043478 0.000000 0.000000
0.046823 0.000000 0.000000
0.050167 0.000000 0.000000
0.053512 0.000000 0.000000
0.056856 0.000000 0.000000
0.060201 0.000000 0.000000
0.063545 0.000000 0.000000
0.066890 0.000000 0.000000
0.070234 0.000000 0.000000
0.073579 0.000000 0.000000
0.076923 0.000000 0.000000
0.080268 0.000000 0.000000
0.083612 0.000000 0.000000
0.086957 0.000000 0.000000
0.090301 0.000000 0.000000
0.093645 0.000000 0.000000
0.096990 0.000000 0.000000
0.100334 0.000000 0.000000
0.103679 0.000000 0.000000
0.107023 0.000000 0.000000
0.110368 0.000000 0.000000
0.113712 0.000000 0.000000
0.117057 0.000000 0.000000
0.120401 0.000000 0.000000
0.123746 0.000000 0.000000
0.127090 0.000000 0.000000
0.130435 0.000000 0.000000
0.133779 0.000000 0.000000
0.137124 0.000000 0.000000
0.140468 0.000000 0.000000
0.143813 0.000000 0.000000
0.147157 0.000000 0.000000
0.150502 0.000000 0.000000
0.153846 0.000000 0.000000
0.157191 0.000000 0.000000
0.160535 0.000000 0.000000
0.163880 0.000000 0.000000
0.167224 0.000000 0.000000
0.170569 0.000000 0.000000
0.173913 0.000000 0.000000
0.177258 0.000000 0.000000
0.180602 0.000000 0.000000
0.183946 0.000000 0.000000
0.187291 0.000000 0.000000
0.190635 0.000000 0.000000
0.193980 0.000000 0.000000
0.197324 0.000000 0.000000
0.200669 0.000000 0.000000
0.204013 0.000000 0.000000
0.207358 0.000000 0.000000
0.210702 0.000000 0.000000
0.214047 0.000000 0.000000
0.217391 0.000000 0.000000
0.220736 0.000000 0.000000
0.224080 0.000000 0.000000
0.227425 0.000000 0.000000
0.230769 0.000000 0.000000
0.234114 0.000000 0.000000
0.237458 0.000000 0.000000
0.240803 0.000000 0.000000
0.244147 0.000000 0.000000
0.247492 0.000000 0.000000
0.250836 0.000000 0.000000
0.254181 0.000000 0.000000
0.257525 0.000000 0.000000
0.260870 0.000000 0.000000
0.264214 0.000000 0.000000
0.267559 0.000000 0.000000
0.270903 0.000000 0.000000
0.274247 0.000000 0.000000
0.277592 0.000000 0.000000
0.280936 0.000000 0.000000
0.284281 0.000000 0.000000
0.287625 0.000000 0.000000
0.290970 0.000000 0.000000
0.294314 0.000000 0.000000
0.297659 0.000000 0.000000
0.301003 0.000000 0.000000
0.304348 0.000000 0.000000
0.307692 0.000000 0.000000
0.311037 0.000000 0.000000
0.314381 0.000000 0.000000
0.317726 0.000000 0.000000
0.321070 0.000000 0.000000
0.324415 0.000000 0.000000
0.327759 0.000000 0.000000
0.331104 0.000000 0.000000
0.334448 0.000000 0.000000
0.337793 0.000000 0.000000
0.341137 0.000000 0.000000
0.344482 0.000000 0.000000
0.347826 0.000000 0.000000
0.351171 0.000000 0.000000
0.354515 0.000000 0.000000
0.357860 0.000000 0.000000
0.361204 0.000000 0.000000
0.364548 0.000000 0.000000
0.367893 0.000000 0.000000
0.371237 0.000000 0.000000
0.374582 0.000000 0.000000
0.377926 0.000000 0.000000
0.381271 0.000000 0.000000
0.384615 0.000000 0.000000
0.387960 0.000000 0.000000
0.391304 0.000000 0.000000
0.394649 0.000000 0.000000
0.397993 0.000000 0.000000
0.401338 0.000000 0.000000
0.404682 0.000000 0.000000
0.408027 0.000000 0.000000
0.411371 0.000000 0.000000
0.414716 0.000000 0.000000
0.418060 0.000000 0.000000
0.421405 0.000000 0.000000
0.424749 0.000000 0.000000
0.428094 0.000000 0.000000
0.431438 0.000000 0.000000
0.434783 0.000000 0.000000
0.438127 0.000000 0.000000
0.441472 0.000000 0.000000
0.444816 0.000000 0.000000
0.448161 0.000000 0.000000
0.451505 0.000000 0.000000
0.454849 0.000000 0.000000
0.458194 0.000000 0.000000
0.461538 0.000000 0.000000
0.464883 0.000000 0.000000
0.468227 0.000000 0.000000
0.471572 0.000000 0.000000
0.474916 0.000000 0.000000
0.478261 0.000000 0.000000
0.481605 0.000000 0.000000
0.484950 0.000000 0.000000
0.488294 0.000000 0.000000
0.491639 0.000000 0.000000
0.494983 0.000000 0.000000
0.498328 0.000000 0.000000
0.501672 0.000000 0.000000
0.505017 0.000000 0.000000
0.508361 0.000000 0.000000
0.511706 0.000000 0.000000
0.515050 0.000000 0.000000
0.518395 0.000000 0.000000
0.521739 0.000000 0.000000
0.525084 0.000000 0.000000
0.528428 0.000000 0.000000
0.531773 0.000000 0.000000
0.535117 0.000000 0.000000
0.538462 0.000000 0.000000
0.541806 0.000000 0.000000
0.545151 0.000000 0.000000
0.548495 0.000000 0.000000
0.551839 0.000000 0.000000
0.555184 0.000000 0.000000
0.558528 0.000000 0.000000
0.561873 0.000000 0.000000
0.565217 0.000000 0.000000
0.568562 0.000000 0.000000
0.571906 0.000000 0.000000
0.575251 0.000000 0.000000
0.578595 0.000000 0.000000
0.581940 0.000000 0.000000
0.585284 0.000000 0.000000
0.588629 0.000000 0.000000
0.591973 0.000000 0.000000
0.595318 0.000000 0.000000
0.598662 0.000000 0.000000
0.602007 0.000000 0.000000
0.605351 0.000000 0.000000
0.608696 0.000000 0.000000
0.612040 0.000000 0.000000
0.615385 0.000000 0.000000
0.618729 0.000000 0.000000
0.622074 0.000000 0.000000
0.625418 0.000000 0.000000
0.628763 0.000000 0.000000
0.632107 0.000000 0.000000
0.635452 0.000000 0.000000
0.638796 0.000000 0.000000
0.642140 0.000000 0.000000
0.645485 0.000000 0.000000
0.648829 0.000000 0.000000
0.652174 0.000000 0.000000
0.655518 0.000000 0.000000
0.658863 0.000000 0.000000
0.662207 0.000000 0.000000
0.665552 0.000000 0.000000
0.668896 0.000000 0.000000
0.672241 0.000000 0.000000
0.675585 0.000000 0.000000
0.678930 0.000000 0.000000
0.682274 0.000000 0.000000
0.685619 0.000000 0.000000
0.688963 0.000000 0.000000
0.692308 0.000000 0.000000
0.695652 0.000000 0.000000
0.698997 0.000000 0.000000
0.702341 0.000000 0.000000
0.705686 0.000000 0.000000
0.709030 0.000000 0.000000
0.712375 0.000000 0.000000
0.715719 0.000000 0.000000
0.719064 0.000000 0.000000
0.722408 0.000000 0.000000
0.725753 0.000000 0.000000
0.729097 0.000000 0.000000
0.732441 0.000000 0.000000
0.735786 0.000000 0.000000
0.739130 0.000000 0.000000
0.742475 0.000000 0.000000
0.745819 0.000000 0.000000
0.749164 0.000000 0.000000
0.752508 0.000000 0.000000
0.755853 0.000000 0.000000
0.759197 0.000000 0.000000
0.762542 0.000000 0.000000
0.765886 0.000000 0.000000
0.769231 0.000000 0.000000
0.772575 0.000000 0.000000
0.775920 0.000000 0.000000
0.779264 0.000000 0.000000
0.782609 0.000000 0.000000
0.785953 0.000000 0.000000
0.789298 0.000000 0.000000
0.792642 0.000000 0.000000
0.795987 0.000000 0.000000
0.799331 0.000000 0.000000
0.802676 0.000000 0.000000
0.806020 0.000000 0.000000
0.809365 0.000000 0.000000
0.812709 0.000000 0.000000
0.816054 0.000000 0.000000
0.819398 0.000000 0.000000
0.822742 0.000000 0.000000
0.826087 0.000000 0.000000
0.829431 0.000000 0.000000
0.832776 0.000000 0.000000
0.836120 0.000000 0.000000
0.839465 0.000000 0.000000
0.842809 0.000000 0.000000
0.846154 0.000000 0.000000
0.849498 0.000000 0.000000
0.852843 0.000000 0.000000
0.856187 0.000000 0.000000
0.859532 0.000000 0.000000
0.862876 0.000000 0.000000
0.866221 0.000000 0.000000
0.869565 0.000000 0.000000
0.872910 0.000000 0.000000
0.876254 0.000000 0.000000
0.879599 0.000000 0.000000
0.882943 0.000000 0.000000
0.886288 0.000000 0.000000
0.889632 0.000000 0.000000
0.892977 0.000000 0.000000
0.896321 0.000000 0.000000
0.899666 0.000000 0.000000
0.903010 0.000000 0.000000
0.906355 0.000000 0.000000
0.909699 0.000000 0.000000
0.913043 0.000000 0.000000
0.916388 0.000000 0.000000
0.919732 0.000000 0.000000
0.923077 0.000000 0.000000
0.926421 0.000000 0.000000
0.929766 0.000000 0.000000
0.933110 0.000000 0.000000
0.936455 0.000000 0.000000
0.939799 0.000000 0.000000
0.943144 0.000000 0.000000
0.946488 0.000000 0.000000
0.949833 0.000000 0.000000
0.953177 0.000000 0.000000
0.956522 0.000000 0.000000
0.959866 0.000000 0.000000
0.963211 0.000000 0.000000
0.966555 0.000000 0.000000
0.969900 0.000000 0.000000
0.973244 0.000000 0.000000
0.976589 0.000000 0.000000
0.979933 0.000000 0.000000
0.983278 0.000000 0.000000
0.986622 0.000000 0.000000
0.989967 0.000000 0.000000
0.993311 0.000000 0.000000
0.996656 0.000000 0.000000
1.000000 0.000000 0.000000
0.000000 0.003344 0.000000
0.003344 0.003344 0.000000
0.006689 0.003344 0.000000
0.010033 0.003344 0.000000
0.013378 0.003344 0.000000
0.016722 0.003344 0.000000
0.020067 0.003344 0.000000
0.023411 0.003344 0.000000
0.026756 0.003344 0.000000
0.030100 0.003344 0.000000
0.033445 0.003344 0.000000
0.036789 0.003344 0.000000
0.040134 0.003344 0.000000
0.043478 0.003344 0.000000
0.046823 0.003344 0.000000
0.050167 0.003344 0.000000
0.053512 0.003344 0.000000
0.056856 0.003344 0.000000
0.060201 0.003344 0.000000
0.063545 0.003344 0.000000
0.066890 0.003344 0.000000
0.070234 0.003344 0.000000
0.073579 0.003344 0.000000
0.076923 0.003344 0.000000
0.080268 0.003344 0.000000
0.083612 0.003344 0.000000
0.086957 0.003344 0.000000
0.090301 0.003344 0.000000
0.093645 0.003344 0.000000
0.096990 0.003344 0.000000
0.100334 0.003344 0.000000
0.103679 0.003344 0.000000
0.107023 0.003344 0.000000
0.110368 0.003344 0.000000
0.113712 0.003344 0.000000
0.117057 0.003344 0.000000
0.120401 0.003344 0.000000
0.123746 0.003344 0.000000
0.127090 0.003344 0.000000
0.130435 0.003344 0.000000
0.133779 0.003344 0.000000
0.137124 0.003344 0.000000
0.140468 0.003344 0.000000
0.143813 0.003344 0.000000
0.147157 0.003344 0.000000
0.150502 0.003344 0.000000
0.153846 0.003344 0.000000
0.157191 0.003344 0.000000
0.160535 0.003344 0.000000
0.163880 0.003344 0.000000
0.167224 0.003344 0.000000
0.170569 0.003344 0.000000
0.173913 0.003344 0.000000
0.177258 0.003344 0.000000
0.180602 0.003344 0.000000
0.183946 0.003344 0.000000
0.187291 0.003344 0.000000
0.190635 0.003344 0.000000
0.193980 0.003344 0.000000
0.197324 0.003344 0.000000
0.200669 0.003344 0.000000
0.204013 0.003344 0.000000
0.207358 0.003344 0.000000
0.210702 0.003344 0.000000
0.214047 0.003344 0.000000
0.217391 0.003344 0.000000
[...]
POINT_DATA 90000
SCALARS P float 1
LOOKUP_TABLE default
 0.000000
 0.003333
 0.006667
 0.010000
 0.013333
 0.016667
 0.020000
 0.023333
 0.026667
 0.030000
 0.033333
 0.036667
 0.040000
 0.043333
 0.046667
 0.050000
 0.053333
 0.056667
 0.060000
 0.063333
 0.066667
 0.070000
 0.073333
 0.076667
 0.080000
 0.083333
 0.086667
 0.090000
 0.093333
 0.096667
 0.100000
 0.103333
 0.106667
 0.110000
 0.113333
 0.116667
 0.120000
 0.123333
 0.126667
 0.130000
 0.133333
 0.136667
 0.140000
 0.143333
 0.146667
 0.150000
 0.153333
 0.156667
 0.160000
 0.163333
 0.166667
 0.170000
 0.173333
 0.176667
 0.180000
 0.183333
 0.186667
 0.190000
 0.193333
 0.196667
 0.200000
 0.203333
 0.206667
 0.210000
 0.213333
 0.216667
 0.220000
 0.223333
 0.226667
 0.230000
 0.233333
 0.236667
 0.240000
 0.243333
 0.246667
 0.250000
 0.253333
 0.256667
 0.260000
 0.263333
 0.266667
 0.270000
 0.273333
 0.276667
 0.280000
 0.283333
 0.286667
 0.290000
 0.293333
 0.296667
 0.300000
 0.303333
 0.306667
 0.310000
 0.313333
 0.316667
 0.320000
 0.323333
 0.326667
 0.330000
 0.333333
 0.336667
 0.340000
 0.343333
 0.346667
 0.350000
 0.353333
 0.356667
 0.360000
 0.363333
 0.366667
 0.370000
 0.373333
 0.376667
 0.380000
 0.383333
 0.386667
 0.390000
 0.393333
 0.396667
 0.400000
 0.403333
 0.406667
 0.410000
 0.413333
 0.416667
 0.420000
 0.423333
 0.426667
 0.430000
 0.433333
 0.436667
 0.440000
 0.443333
 0.446667
 0.450000
 0.453333
 0.456667
 0.460000
 0.463333
 0.466667
 0.470000
 0.473333
 0.476667
 0.480000
 0.483333
 0.486667
 0.490000
 0.493333
 0.496667
 0.500000
 0.503333
 0.506667
 0.510000
 0.513333
 0.516667
 0.520000
 0.523333
 0.526667
 0.530000
 0.533333
 0.536667
 0.540000
 0.543333
 0.546667
 0.550000
 0.553333
 0.556667
 0.560000
 0.563333
 0.566667
 0.570000
 0.573333
 0.576667
 0.580000
 0.583333
 0.586667
 0.590000
 0.593333
 0.596667
 0.600000
 0.603333
 0.606667
 0.610000
 0.613333
 0.616667
 0.620000
 0.623333
 0.626667
 0.630000
 0.633333
 0.636667
 0.640000
 0.643333
 0.646667
 0.650000
 0.653333
 0.656667
 0.660000
 0.663333
 0.666667
 0.670000
 0.673333
 0.676667
 0.680000
 0.683333
 0.686667
 0.690000
 0.693333
 0.696667
 0.700000
 0.703333
 0.706667
 0.710000
 0.713333
 0.716667
 0.720000
 0.723333
 0.726667
 0.730000
 0.733333
 0.736667
 0.740000
 0.743333
 0.746667
 0.750000
 0.753333
 0.756667
 0.760000
 0.763333
 0.766667
 0.770000
 0.773333
 0.776667
 0.780000
 0.783333
 0.786667
 0.790000
 0.793333
 0.796667
 0.800000
 0.803333
 0.806667
 0.810000
 0.813333
 0.816667
 0.820000
 0.823333
 0.826667
 0.830000
 0.833333
 0.836667
 0.840000
 0.843333
 0.846667
 0.850000
 0.853333
 0.856667
 0.860000
 0.863333
 0.866667
 0.870000
 0.873333
 0.876667
 0.880000
 0.883333
 0.886667
 0.890000
 0.893333
 0.896667
 0.900000
 0.903333
 0.906667
 0.910000
 0.913333
 0.916667
 0.920000
 0.923333
 0.926667
 0.930000
 0.933333
 0.936667
 0.940000
 0.943333
 0.946667
 0.950000
 0.953333
 0.956667
 0.960000
 0.963333
 0.966667
 0.970000
 0.973333
 0.976667
 0.980000
 0.983333
 0.986667
 0.990000
 0.993333
 0.996667
 0.000000
 0.003344
 0.006689
 0.010033
 0.013378
 0.016722
 0.020067
 0.023411
 0.026756
 0.030100
 0.033445
 0.036789
 0.040134
 0.043478
 0.046822
 0.050167
 0.053511
 0.056856
 0.060200
 0.063545
 0.066889
 0.070234
 0.073578
 0.076923
 0.080267
 0.083612
 0.086956
 0.090301
 0.093645
 0.096989
 0.100334
 0.103678
 0.107023
 0.110367
 0.113712
 0.117056
 0.120401
 0.123745
 0.127090
 0.130434
 0.133779
 0.137123
 0.140467
 0.143812
 0.147156
 0.150501
 0.153845
 0.157190
 0.160534
 0.163879
 0.167223
 0.170568
 0.173912
 0.177257
 0.180601
 0.183945
 0.187290
 0.190634
 0.193979
 0.197323
 0.200668
 0.204012
 0.207357
 0.210701
 0.214046
 0.217390
 0.220735
 0.224079
 0.227423
 0.230768
 0.234112
 0.237457
 0.240801
 0.244146
 0.247490
 0.250835
 0.254179
 0.257524
 0.260868
 0.264213
 0.267557
 0.270902
 0.274246
 0.277590
 0.280935
 0.284279
 0.287624
 0.290968
 0.294313
 0.297657
 0.301002
 0.304346
 0.307691
 0.311035
 0.314380
 0.317724
 0.321068
 0.324413
 0.327757
 0.331102
 0.334446
 0.337791
 0.341135
 0.344480
 0.347824
 0.351169
 0.354513
 0.357858
 0.361202
 0.364546
 0.367891
 0.371235
 0.374580
 0.377924
 0.381269
 0.384613
 0.387958
 0.391302
 0.394647
 0.397991
 0.401336
 0.404680
 0.408024
 0.411369
 0.414713
 0.418058
 0.421402
 0.424747
 0.428091
 0.431436
 0.434780
 0.438125
 0.441469
 0.444814
 0.448158
 0.451503
 0.454847
 0.458191
 0.461536
 0.464880
 0.468225
 0.471569
 0.474914
 0.478258
 0.481603
 0.484947
 0.488292
 0.491636
 0.494981
 0.498325
 0.501669
 0.505014
 0.508358
 0.511703
 0.515047
 0.518392
 0.521736
 0.525081
 0.528425
 0.531770
 0.535114
 0.538459
 0.541803
 0.545147
 0.548492
 0.551836
 0.555181
 0.558525
 0.561870
 0.565214
 0.568559
 0.571903
 0.575248
 0.578592
 0.581937
 0.585281
 0.588625
 0.591970
 0.595314
 0.598659
 0.602003
 0.605348
 0.608692
 0.612037
 0.615381
 0.618726
 0.622070
 0.625415
 0.628759
 0.632104
 0.635448
 0.638792
 0.642137
 0.645481
 0.648826
 0.652170
 0.655515
 0.658859
 0.662204
 0.665548
 0.668893
 0.672237
 0.675582
 0.678926
 0.682270
 0.685615
 0.688959
 0.692304
 0.695648
 0.698993
 0.702337
 0.705682
 0.709026
 0.712371
 0.715715
 0.719060
 0.722404
 0.725748
 0.729093
 0.732437
 0.735782
 0.739126
 0.742471
 0.745815
 0.749160
 0.752504
 0.755849
 0.759193
 0.762538
 0.765882
 0.769226
 0.772571
 0.775915
 0.779260
 0.782604
 0.785949
 0.789293
 0.792638
 0.795982
 0.799327
 0.802671
 0.806016
 0.809360
 0.812705
 0.816049
 0.819393
 0.822738
 0.826082
 0.829427
 0.832771
 0.836116
 0.839460
 0.842805
 0.846149
 0.849494
 0.852838
 0.856183
 0.859527
 0.862871
 0.866216
 0.869560
 0.872905
 0.876249
 0.879594
 0.882938
 0.886283
 0.889627
 0.892972
 0.896316
 0.899661
 0.903005
 0.906349
 0.909694
 0.913038
 0.916383
 0.919727
 0.923072
 0.926416
 0.929761
 0.933105
 0.936450
 0.939794
 0.943139
 0.946483
 0.949827
 0.953172
 0.956516
 0.959861
 0.963205
 0.966550
 0.969894
 0.973239
 0.976583
 0.979928
 0.983272
 0.986617
 0.989961
 0.993306
 0.996650
 0.999994
 0.000000
 0.003356
 0.006711
 0.010067
 0.013423
 0.016778
 0.020134
 0.023489
 0.026845
 0.030201
 0.033556
 0.036912
 0.040268
 0.043623
 0.046979
 0.050334
 0.053690
 0.057046
 0.060401
 0.063757
 0.067113
 0.070468
 0.073824
 0.077179
 0.080535
 0.083891
 0.087246
 0.090602
 0.093958
 0.097313
 0.100669
 0.104025
 0.107380
 0.110736
 0.114091
 0.117447
 0.120803
 0.124158
 0.127514
 0.130870
 0.134225
 0.137581
 0.140936
 0.144292
 0.147648
 0.151003
 0.154359
 0.157715
 0.161070
 0.164426
 0.167781
 0.171137
 0.174493
 0.177848
 0.181204
 0.184560
 0.187915
 0.191271
 0.194627
 0.197982
 0.201338
 0.204693
 0.208049
 0.211405
 0.214760
 0.218116
 0.221472
 0.224827
 0.228183
 0.231538
 0.234894
 0.238250
 0.241605
 0.244961
 0.248317
 0.251672
 0.255028
 0.258383
 0.261739
 0.265095
 0.268450
 0.271806
 0.275162
 0.278517
 0.281873
 0.285229
 0.288584
 0.291940
 0.295295
 0.298651
 0.302007
 0.305362
 0.308718
 0.312074
 0.315429
 0.318785
 0.322140
 0.325496
 0.328852
 0.332207
 0.335563
 0.338919
 0.342274
 0.345630
 0.348985
 0.352341
 0.355697
 0.359052
 0.362408
 0.365764
 0.369119
 0.372475
 0.375831
 0.379186
 0.382542
 0.385897
 0.389253
 0.392609
 0.395964
 0.399320
 0.402676
 0.406031
 0.409387
 0.412742
 0.416098
 0.419454
 0.422809
 0.426165
 0.429521
 0.432876
 0.436232
 0.439588
 0.442943
 0.446299
 0.449654
 0.453010
 0.456366
 0.459721
 0.463077
 0.466433
 0.469788
 0.473144
 0.476499
 0.479855
 0.483211
 0.486566
 0.489922
 0.493278
 0.496633
 0.499989
 0.503344
 0.506700
 0.510056
 0.513411
 0.516767
 0.520123
 0.523478
 0.526834
 0.530190
 0.533545
 0.536901
 0.540256
 0.543612
 0.546968
 0.550323
 0.553679
 0.557035
 0.560390
 0.563746
 0.567101
 0.570457
 0.573813
 0.577168
 0.580524
 0.583880
 0.587235
 0.590591
 0.593946
 0.597302
 0.600658
 0.604013
 0.607369
 0.610725
 0.614080
 0.617436
 0.620792
 0.624147
 0.627503
 0.630858
 0.634214
 0.637570
 0.640925
 0.644281
 0.647637
 0.650992
 0.654348
 0.657703
 0.661059
 0.664415
 0.667770
 0.671126
 0.674482
 0.677837
 0.681193
 0.684548
 0.687904
 0.691260
 0.694615
 0.697971
 0.701327
 0.704682
 0.708038
 0.711394
 0.714749
 0.718105
 0.721460
 0.724816
 0.728172
 0.731527
 0.734883
 0.738239
 0.741594
 0.744950
 0.748305
 0.751661
 0.755017
 0.758372
 0.761728
 0.765084
 0.768439
 0.771795
 0.775150
 0.778506
 0.781862
 0.785217
 0.788573
 0.791929
 0.795284
 0.798640
 0.801996
 0.805351
 0.808707
 0.812062
 0.815418
 0.818774
 0.822129
 0.825485
 0.828841
 0.832196
 0.835552
 0.838907
 0.842263
 0.845619
 0.848974
 0.852330
 0.855686
 0.859041
 0.862397
 0.865752
 0.869108
 0.872464
 0.875819
 0.879175
 0.882531
 0.885886
 0.889242
 0.892598
 0.895953
 0.899309
 0.902664
 0.906020
 0.909376
 0.912731
 0.916087
 0.919443
 0.922798
 0.926154
 0.929509
 0.932865
 0.936221
 0.939576
 0.942932
 0.946288
 0.949643
 0.952999
 0.956354
 0.959710
 0.963066
 0.966421
 0.969777
 0.973133
 0.976488
 0.979844
 0.983200
 0.986555
 0.989911
 0.993266
 0.996622
 0.999978
 1.003333
 0.000000
 0.003367
 0.006734
 0.010101
 0.013467
 0.016834
 0.020201
 0.023568
 0.026935
 0.030302
 0.033668
 0.037035
 0.040402
 0.043769
 0.047136
 0.050503
 0.053869
 0.057236
 0.060603
 0.063970
 0.067337
 0.070704
 0.074070
 0.077437
 0.080804
 0.084171
 0.087538
 0.090905
 0.094271
 0.097638
 0.101005
 0.104372
 0.107739
 0.111106
 0.114472
 0.117839
 0.121206
 0.124573
 0.127940
 0.131307
 0.134673
 0.138040
 0.141407
 0.144774
 0.148141
 0.151508
 0.154874
 0.158241
 0.161608
 0.164975
 0.168342
 0.171709
 0.175075
 0.178442
 0.181809
 0.185176
 0.188543
 0.191910
 0.195276
 0.198643
 0.202010
 0.205377
 0.208744
 0.212111
 0.215477
 0.218844
 0.222211
 0.225578
 0.228945
 0.232312
 0.235678
 0.239045
 0.242412
 0.245779
 0.249146
 0.252513
 0.255879
 0.259246
 0.262613
 0.265980
 0.269347
 0.272714
 0.276080
 0.279447
 0.282814
 0.286181
 0.289548
 0.292915
 0.296281
 0.299648
 0.303015
 0.306382
 0.309749
 0.313116
 0.316482
 0.319849
 0.323216
 0.326583
 0.329950
 0.333317
 0.336683
 0.340050
 0.343417
 0.346784
 0.350151
 0.353518
 0.356884
 0.360251
 0.363618
 0.366985
 0.370352
 0.373719
 0.377085
 0.380452
 0.383819
 0.387186
 0.390553
 0.393920
 0.397286
 0.400653
 0.404020
 0.407387
 0.410754
 0.414121
 0.417487
 0.420854
 0.424221
 0.427588
 0.430955
 0.434322
 0.437688
 0.441055
 0.444422
 0.447789
 0.451156
 0.454523
 0.457889
 0.461256
 0.464623
 0.467990
 0.471357
 0.474724
 0.478090
 0.481457
 0.484824
 0.488191
 0.491558
 0.494925
 0.498291
 0.501658
 0.505025
 0.508392
 0.511759
 0.515126
 0.518492
 0.521859
 0.525226
 0.528593
 0.531960
 0.535327
 0.538693
 0.542060
 0.545427
 0.548794
 0.552161
 0.555528
 0.558894
 0.562261
 0.565628
 0.568995
 0.572362
 0.575729
 0.579095
 0.582462
 0.585829
 0.589196
 0.592563
 0.595930
 0.599296
 0.602663
 0.606030
 0.609397
 0.612764
 0.616131
 0.619497
 0.622864
 0.626231
 0.629598
 0.632965
 0.636332
 0.639698
 0.643065
 0.646432
 0.649799
 0.653166
 0.656533
 0.659899
 0.663266
 0.666633
 0.670000
 0.673367
 0.676734
 0.680100
 0.683467
 0.686834
 0.690201
 0.693568
 0.696935
 0.700301
 0.703668
 0.707035
 0.710402
 0.713769
 0.717136
 0.720502
 0.723869
 0.727236
 0.730603
 0.733970
 0.737337
 0.740703
 0.744070
 0.747437
 0.750804
 0.754171
 0.757538
 0.760904
 0.764271
 0.767638
 0.771005
 0.774372
 0.777739
 0.781105
 0.784472
 0.787839
 0.791206
 0.794573
 0.797940
 0.801306
 0.804673
 0.808040
 0.811407
 0.814774
 0.818141
 0.821507
 0.824874
 0.828241
 0.831608
 0.834975
 0.838342
 0.841708
 0.845075
 0.848442
 0.851809
 0.855176
 0.858543
 0.861909
 0.865276
 0.868643
 0.872010
 0.875377
 0.878744
 0.882110
 0.885477
 0.888844
 0.892211
 0.895578
 0.898945
 0.902311
 0.905678
 0.909045
 0.912412
 0.915779
 0.919146
 0.922512
 0.925879
 0.929246
 0.932613
 0.935980
 0.939347
 0.942713
 0.946080
 0.949447
 0.952814
 0.956181
 0.959548
 0.962914
 0.966281
 0.969648
 0.973015
 0.976382
 0.979749
 0.983116
 0.986482
 0.989849
 0.993216
 0.996583
 0.999950
 1.003317
 1.006683
 0.000000
 0.003378
 0.006756
 0.010134
 0.013512
 0.016890
 0.020268
 0.023647
 0.027025
 0.030403
 0.033781
 0.037159
 0.040537
 0.043915
 0.047293
 0.050671
 0.054049
 0.057427
 0.060805
 0.064183
 0.067562
 0.070940
 0.074318
 0.077696
 0.081074
 0.084452
 0.087830
 0.091208
 0.094586
 0.097964
 0.101342
 0.104720
 0.108098
 0.111476
 0.114855
 0.118233
 0.121611
 0.124989
 0.128367
 0.131745
 0.135123
 0.138501
 0.141879
 0.145257
 0.148635
 0.152013
 0.155391
 0.158770
 0.162148
 0.165526
 0.168904
 0.172282
 0.175660
 0.179038
 0.182416
 0.185794
 0.189172
 0.192550
 0.195928
 0.199306
 0.202685
 0.206063
 0.209441
 0.212819
 0.216197
 0.219575
 0.222953
 0.226331
 0.229709
 0.233087
 0.236465
 0.239843
 0.243221
 0.246600
 0.249978
 0.253356
 0.256734
 0.260112
 0.263490
 0.266868
 0.270246
 0.273624
 0.277002
 0.280380
 0.283758
 0.287136
 0.290514
 0.293893
 0.297271
 0.300649
 0.304027
 0.307405
 0.310783
 0.314161
 0.317539
 0.320917
 0.324295
 0.327673
 0.331051
 0.334429
 0.337808
 0.341186
 0.344564
 0.347942
 0.351320
 0.354698
 0.358076
 0.361454
 0.364832
 0.368210
 0.371588
 0.374966
 0.378344
 0.381723
 0.385101
 0.388479
 0.391857
 0.395235
 0.398613
 0.401991
 0.405369
 0.408747
 0.412125
 0.415503
 0.418881
 0.422259
 0.425638
 0.429016
 0.432394
 0.435772
 0.439150
 0.442528
 0.445906
 0.449284
 0.452662
 0.456040
 0.459418
 0.462796
 0.466174
 0.469552
 0.472931
 0.476309
 0.479687
 0.483065
 0.486443
 0.489821
 0.493199
 0.496577
 0.499955
 0.503333
 0.506711
 0.510089
 0.513467
 0.516846
 0.520224
 0.523602
 0.526980
 0.530358
 0.533736
 0.537114
 0.540492
 0.543870
 0.547248
 0.550626
 0.554004
 0.557382
 0.560761
 0.564139
 0.567517
 0.570895
 0.574273
 0.577651
 0.581029
 0.584407
 0.587785
 0.591163
 0.594541
 0.597919
 0.601297
 0.604675
 0.608054
 0.611432
 0.614810
 0.618188
 0.621566
 0.624944
 0.628322
 0.631700
 0.635078
 0.638456
 0.641834
 0.645212
 0.648590
 0.651969
 0.655347
 0.658725
 0.662103
 0.665481
 0.668859
 0.672237
 0.675615
 0.678993
 0.682371
 0.685749
 0.689127
 0.692505
 0.695884
 0.699262
 0.702640
 0.706018
 0.709396
 0.712774
 0.716152
 0.719530
 0.722908
 0.726286
 0.729664
 0.733042
 0.736420
 0.739799
 0.743177
 0.746555
 0.749933
 0.753311
 0.756689
 0.760067
 0.763445
 0.766823
 0.770201
 0.773579
 0.776957
 0.780335
 0.783713
 0.787092
 0.790470
 0.793848
 0.797226
 0.800604
 0.803982
 0.807360
 0.810738
 0.814116
 0.817494
 0.820872
 0.824250
 0.827628
 0.831007
 0.834385
 0.837763
 0.841141
 0.844519
 0.847897
 0.851275
 0.854653
 0.858031
 0.861409
 0.864787
 0.868165
 0.871543
 0.874922
 0.878300
 0.881678
 0.885056
 0.888434
 0.891812
 0.895190
 0.898568
 0.901946
 0.905324
 0.908702
 0.912080
 0.915458
 0.918837
 0.922215
 0.925593
 0.928971
 0.932349
 0.935727
 0.939105
 0.942483
 0.945861
 0.949239
 0.952617
 0.955995
 0.959373
 0.962751
 0.966130
 0.969508
 0.972886
 0.976264
 0.979642
 0.983020
 0.986398
 0.989776
 0.993154
 0.996532
 0.999910
 1.003288
 1.006666
 1.010045
 0.000000
 0.003389
 0.006779
 0.010168
 0.013557
 0.016947
 0.020336
 0.023725
 0.027115
 0.030504
 0.033894
 0.037283
 0.040672
 0.044062
 0.047451
 0.050840
 0.054230
 0.057619
 0.061008
 0.064398
 0.067787
 0.071176
 0.074566
 0.077955
 0.081345
 0.084734
 0.088123
 0.091513
 0.094902
 0.098291
 0.101681
 0.105070
 0.108459
 0.111849
 0.115238
 0.118627
 0.122017
 0.125406
 0.128795
 0.132185
 0.135574
 0.138964
 0.142353
 0.145742
 0.149132
 0.152521
 0.155910
 0.159300
 0.162689
 0.166078
 0.169468
 0.172857
 0.176246
 0.179636
 0.183025
 0.186414
 0.189804
 0.193193
 0.196583
 0.199972
 0.203361
 0.206751
 0.210140
 0.213529
 0.216919
 0.220308
 0.223697
 0.227087
 0.230476
 0.233865
 0.237255
 0.240644
 0.244034
 0.247423
 0.250812
 0.254202
 0.257591
 0.260980
 0.264370
 0.267759
 0.271148
 0.274538
 0.277927
 0.281316
 0.284706
 0.288095
 0.291484
 0.294874
 0.298263
 0.301653
 0.305042
 0.308431
 0.311821
 0.315210
 0.318599
 0.321989
 0.325378
 0.328767
 0.332157
 0.335546
 0.338935
 0.342325
 0.345714
 0.349104
 0.352493
 0.355882
 0.359272
 0.362661
 0.366050
 0.369440
 0.372829
 0.376218
 0.379608
 0.382997
 0.386386
 0.389776
 0.393165
 0.396554
 0.399944
 0.403333
 0.406723
 0.410112
 0.413501
 0.416891
 0.420280
 0.423669
 0.427059
 0.430448
 0.433837
 0.437227
 0.440616
 0.444005
 0.447395
 0.450784
 0.454173
 0.457563
 0.460952
 0.464342
 0.467731
 0.471120
 0.474510
 0.477899
 0.481288
 0.484678
 0.488067
 0.491456
 0.494846
 0.498235
 0.501624
 0.505014
 0.508403
 0.511793
 0.515182
 0.518571
 0.521961
 0.525350
 0.528739
 0.532129
 0.535518
 0.538907
 0.542297
 0.545686
 0.549075
 0.552465
 0.555854
 0.559243
 0.562633
 0.566022
 0.569412
 0.572801
 0.576190
 0.579580
 0.582969
 0.586358
 0.589748
 0.593137
 0.596526
 0.599916
 0.603305
 0.606694
 0.610084
 0.613473
 0.616863
 0.620252
 0.623641
 0.627031
 0.630420
 0.633809
 0.637199
 0.640588
 0.643977
 0.647367
 0.650756
 0.654145
 0.657535
 0.660924
 0.664313
 0.667703
 0.671092
 0.674482
 0.677871
 0.681260
 0.684650
 0.688039
 0.691428
 0.694818
 0.698207
 0.701596
 0.704986
 0.708375
 0.711764
 0.715154
 0.718543
 0.721932
 0.725322
 0.728711
 0.732101
 0.735490
 0.738879
 0.742269
 0.745658
 0.749047
 0.752437
 0.755826
 0.759215
 0.762605
 0.765994
 0.769383
 0.772773
 0.776162
 0.779552
 0.782941
 0.786330
 0.789720
 0.793109
 0.796498
 0.799888
 0.803277
 0.806666
 0.810056
 0.813445
 0.816834
 0.820224
 0.823613
 0.827002
 0.830392
 0.833781
 0.837171
 0.840560
 0.843949
 0.847339
 0.850728
 0.854117
 0.857507
 0.860896
 0.864285
 0.867675
 0.871064
 0.874453
 0.877843
 0.881232
 0.884622
 0.888011
 0.891400
 0.894790
 0.898179
 0.901568
 0.904958
 0.908347
 0.911736
 0.915126
 0.918515
 0.921904
 0.925294
 0.928683
 0.932072
 0.935462
 0.938851
 0.942241
 0.945630
 0.949019
 0.952409
 0.955798
 0.959187
 0.962577
 0.965966
 0.969355
 0.972745
 0.976134
 0.979523
 0.982913
 0.986302
 0.989692
 0.993081
 0.996470
 0.999860
 1.003249
 1.006638
 1.010028
 1.013417
 0.000000
 0.003401
 0.006801
 0.010202
 0.013603
 0.017003
 0.020404
 0.023805
 0.027205
 0.030606
 0.034007
 0.037407
 0.040808
 0.044209
 0.047609
 0.051010
 0.054411
 0.057811
 0.061212
 0.064613
 0.068013
 0.071414
 0.074815
 0.078215
 0.081616
 0.085017
 0.088417
 0.091818
 0.095219
 0.098619
 0.102020
 0.105421
 0.108821
 0.112222
 0.115623
 0.119023
 0.122424
 0.125825
 0.129226
 0.132626
 0.136027
 0.139428
 0.142828
 0.146229
 0.149630
 0.153030
 0.156431
 0.159832
 0.163232
 0.166633
 0.170034
 0.173434
 0.176835
 0.180236
 0.183636
 0.187037
 0.190438
 0.193838
 0.197239
 0.200640
 0.204040
 0.207441
 0.210842
 0.214242
 0.217643
 0.221044
 0.224444
 0.227845
 0.231246
 0.234646
 0.238047
 0.241448
 0.244848
 0.248249
 0.251650
 0.255050
 0.258451
 0.261852
 0.265252
 0.268653
 0.272054
 0.275454
 0.278855
 0.282256
 0.285656
 0.289057
 0.292458
 0.295858
 0.299259
 0.302660
 0.306060
 0.309461
 0.312862
 0.316262
 0.319663
 0.323064
 0.326464
 0.329865
 0.333266
 0.336666
 0.340067
 0.343468
 0.346868
 0.350269
 0.353670
 0.357070
 0.360471
 0.363872
 0.367272
 0.370673
 0.374074
 0.377474
 0.380875
 0.384276
 0.387677
 0.391077
 0.394478
 0.397879
 0.401279
 0.404680
 0.408081
 0.411481
 0.414882
 0.418283
 0.421683
 0.425084
 0.428485
 0.431885
 0.435286
 0.438687
 0.442087
 0.445488
 0.448889
 0.452289
 0.455690
 0.459091
 0.462491
 0.465892
 0.469293
 0.472693
 0.476094
 0.479495
 0.482895
 0.486296
 0.489697
 0.493097
 0.496498
 0.499899
 0.503299
 0.506700
 0.510101
 0.513501
 0.516902
 0.520303
 0.523703
 0.527104
 0.530505
 0.533905
 0.537306
 0.540707
 0.544107
 0.547508
 0.550909
 0.554309
 0.557710
 0.561111
 0.564511
 0.567912
 0.571313
 0.574713
 0.578114
 0.581515
 0.584915
 0.588316
 0.591717
 0.595117
 0.598518
 0.601919
 0.605319
 0.608720
 0.612121
 0.615521
 0.618922
 0.622323
 0.625723
 0.629124
 0.632525
 0.635926
 0.639326
 0.642727
 0.646128
 0.649528
 0.652929
 0.656330